   3   3   1   0
  0.2252027E+03  0.3950000E-09  0.3950000E-09  0.5000000E-08  0.5000000E-15
  1.000000000000000E-004
  CAR 
 NiI2                                    
      3.63597249    -18.46946791  301     -3.78699637      1.00000000
    -18.469  0.0000E+00  0.0000E+00
    -18.396  0.0000E+00  0.0000E+00
    -18.322  0.0000E+00  0.0000E+00
    -18.248  0.0000E+00  0.0000E+00
    -18.175  0.0000E+00  0.0000E+00
    -18.101  0.0000E+00  0.0000E+00
    -18.027  0.0000E+00  0.0000E+00
    -17.954  0.0000E+00  0.0000E+00
    -17.880  0.0000E+00  0.0000E+00
    -17.806  0.0000E+00  0.0000E+00
    -17.733  0.1696E-13  0.1250E-14
    -17.659  0.2140E-07  0.1577E-08
    -17.585  0.4182E-03  0.3082E-04
    -17.512  0.1545E+00  0.1142E-01
    -17.438  0.1857E+01  0.1482E+00
    -17.364  0.2149E+01  0.3066E+00
    -17.291  0.1362E+01  0.4070E+00
    -17.217  0.1103E+01  0.4882E+00
    -17.143  0.9771E+00  0.5602E+00
    -17.069  0.9042E+00  0.6269E+00
    -16.996  0.8614E+00  0.6903E+00
    -16.922  0.8397E+00  0.7522E+00
    -16.848  0.8361E+00  0.8138E+00
    -16.775  0.9068E+00  0.8806E+00
    -16.701  0.2495E+01  0.1065E+01
    -16.627  0.4177E+01  0.1372E+01
    -16.554  0.3774E+01  0.1650E+01
    -16.480  0.6150E+01  0.2103E+01
    -16.406  0.6521E+01  0.2584E+01
    -16.333  0.1175E+02  0.3450E+01
    -16.259  0.7144E+01  0.3976E+01
    -16.185  0.3240E+00  0.4000E+01
    -16.112  0.5136E-03  0.4000E+01
    -16.038  0.1751E-07  0.4000E+01
    -15.964  0.1017E-13  0.4000E+01
    -15.890  0.0000E+00  0.4000E+01
    -15.817  0.0000E+00  0.4000E+01
    -15.743  0.0000E+00  0.4000E+01
    -15.669  0.0000E+00  0.4000E+01
    -15.596  0.0000E+00  0.4000E+01
    -15.522  0.0000E+00  0.4000E+01
    -15.448  0.0000E+00  0.4000E+01
    -15.375  0.0000E+00  0.4000E+01
    -15.301  0.0000E+00  0.4000E+01
    -15.227  0.0000E+00  0.4000E+01
    -15.154  0.0000E+00  0.4000E+01
    -15.080  0.0000E+00  0.4000E+01
    -15.006  0.0000E+00  0.4000E+01
    -14.933  0.0000E+00  0.4000E+01
    -14.859  0.0000E+00  0.4000E+01
    -14.785  0.0000E+00  0.4000E+01
    -14.712  0.0000E+00  0.4000E+01
    -14.638  0.0000E+00  0.4000E+01
    -14.564  0.0000E+00  0.4000E+01
    -14.490  0.0000E+00  0.4000E+01
    -14.417  0.0000E+00  0.4000E+01
    -14.343  0.0000E+00  0.4000E+01
    -14.269  0.0000E+00  0.4000E+01
    -14.196  0.0000E+00  0.4000E+01
    -14.122  0.0000E+00  0.4000E+01
    -14.048  0.0000E+00  0.4000E+01
    -13.975  0.0000E+00  0.4000E+01
    -13.901  0.0000E+00  0.4000E+01
    -13.827  0.0000E+00  0.4000E+01
    -13.754  0.0000E+00  0.4000E+01
    -13.680  0.0000E+00  0.4000E+01
    -13.606  0.0000E+00  0.4000E+01
    -13.533  0.0000E+00  0.4000E+01
    -13.459  0.0000E+00  0.4000E+01
    -13.385  0.0000E+00  0.4000E+01
    -13.312  0.0000E+00  0.4000E+01
    -13.238  0.0000E+00  0.4000E+01
    -13.164  0.0000E+00  0.4000E+01
    -13.090  0.0000E+00  0.4000E+01
    -13.017  0.0000E+00  0.4000E+01
    -12.943  0.0000E+00  0.4000E+01
    -12.869  0.0000E+00  0.4000E+01
    -12.796  0.0000E+00  0.4000E+01
    -12.722  0.0000E+00  0.4000E+01
    -12.648  0.0000E+00  0.4000E+01
    -12.575  0.0000E+00  0.4000E+01
    -12.501  0.0000E+00  0.4000E+01
    -12.427  0.0000E+00  0.4000E+01
    -12.354  0.0000E+00  0.4000E+01
    -12.280  0.0000E+00  0.4000E+01
    -12.206  0.0000E+00  0.4000E+01
    -12.133  0.0000E+00  0.4000E+01
    -12.059  0.0000E+00  0.4000E+01
    -11.985  0.0000E+00  0.4000E+01
    -11.912  0.0000E+00  0.4000E+01
    -11.838  0.0000E+00  0.4000E+01
    -11.764  0.0000E+00  0.4000E+01
    -11.690  0.0000E+00  0.4000E+01
    -11.617  0.0000E+00  0.4000E+01
    -11.543  0.0000E+00  0.4000E+01
    -11.469  0.0000E+00  0.4000E+01
    -11.396  0.0000E+00  0.4000E+01
    -11.322  0.0000E+00  0.4000E+01
    -11.248  0.0000E+00  0.4000E+01
    -11.175  0.0000E+00  0.4000E+01
    -11.101  0.0000E+00  0.4000E+01
    -11.027  0.0000E+00  0.4000E+01
    -10.954  0.0000E+00  0.4000E+01
    -10.880  0.0000E+00  0.4000E+01
    -10.806  0.0000E+00  0.4000E+01
    -10.733  0.0000E+00  0.4000E+01
    -10.659  0.0000E+00  0.4000E+01
    -10.585  0.0000E+00  0.4000E+01
    -10.512  0.0000E+00  0.4000E+01
    -10.438  0.0000E+00  0.4000E+01
    -10.364  0.0000E+00  0.4000E+01
    -10.290  0.0000E+00  0.4000E+01
    -10.217  0.0000E+00  0.4000E+01
    -10.143  0.0000E+00  0.4000E+01
    -10.069  0.0000E+00  0.4000E+01
     -9.996  0.0000E+00  0.4000E+01
     -9.922  0.0000E+00  0.4000E+01
     -9.848  0.0000E+00  0.4000E+01
     -9.775  0.0000E+00  0.4000E+01
     -9.701  0.0000E+00  0.4000E+01
     -9.627  0.0000E+00  0.4000E+01
     -9.554  0.0000E+00  0.4000E+01
     -9.480  0.0000E+00  0.4000E+01
     -9.406  0.5022E-16  0.4000E+01
     -9.333  0.3283E-09  0.4000E+01
     -9.259  0.2559E-04  0.4000E+01
     -9.185  0.3450E-01  0.4003E+01
     -9.111  0.1191E+01  0.4090E+01
     -9.038  0.2591E+01  0.4281E+01
     -8.964  0.1644E+01  0.4402E+01
     -8.890  0.1255E+01  0.4495E+01
     -8.817  0.1106E+01  0.4576E+01
     -8.743  0.1066E+01  0.4655E+01
     -8.669  0.1686E+01  0.4779E+01
     -8.596  0.3053E+01  0.5004E+01
     -8.522  0.1623E+01  0.5124E+01
     -8.448  0.2762E+01  0.5327E+01
     -8.375  0.2533E+01  0.5514E+01
     -8.301  0.2349E+01  0.5687E+01
     -8.227  0.5071E+01  0.6061E+01
     -8.154  0.4602E+01  0.6400E+01
     -8.080  0.2144E+01  0.6558E+01
     -8.006  0.2991E+01  0.6778E+01
     -7.933  0.4679E+01  0.7123E+01
     -7.859  0.3064E+01  0.7349E+01
     -7.785  0.1531E+01  0.7461E+01
     -7.711  0.1261E+01  0.7554E+01
     -7.638  0.1136E+01  0.7638E+01
     -7.564  0.1065E+01  0.7716E+01
     -7.490  0.1026E+01  0.7792E+01
     -7.417  0.1010E+01  0.7866E+01
     -7.343  0.1013E+01  0.7941E+01
     -7.269  0.1044E+01  0.8018E+01
     -7.196  0.1232E+01  0.8109E+01
     -7.122  0.2723E+01  0.8309E+01
     -7.048  0.3955E+01  0.8601E+01
     -6.975  0.3378E+01  0.8850E+01
     -6.901  0.3076E+01  0.9076E+01
     -6.827  0.3872E+01  0.9362E+01
     -6.754  0.4133E+01  0.9666E+01
     -6.680  0.5224E+01  0.1005E+02
     -6.606  0.1066E+02  0.1084E+02
     -6.533  0.1708E+02  0.1210E+02
     -6.459  0.1130E+02  0.1293E+02
     -6.385  0.3664E+01  0.1320E+02
     -6.311  0.1987E+01  0.1334E+02
     -6.238  0.2336E+01  0.1352E+02
     -6.164  0.3020E+01  0.1374E+02
     -6.090  0.2179E+01  0.1390E+02
     -6.017  0.1749E+01  0.1403E+02
     -5.943  0.1669E+01  0.1415E+02
     -5.869  0.1574E+01  0.1427E+02
     -5.796  0.1528E+01  0.1438E+02
     -5.722  0.1899E+01  0.1452E+02
     -5.648  0.3068E+01  0.1475E+02
     -5.575  0.3105E+01  0.1497E+02
     -5.501  0.3490E+01  0.1523E+02
     -5.427  0.3051E+01  0.1546E+02
     -5.354  0.1249E+01  0.1555E+02
     -5.280  0.1177E+01  0.1564E+02
     -5.206  0.2357E+01  0.1581E+02
     -5.133  0.7197E+01  0.1634E+02
     -5.059  0.7774E+01  0.1691E+02
     -4.985  0.1072E+02  0.1770E+02
     -4.911  0.1024E+02  0.1846E+02
     -4.838  0.1268E+02  0.1939E+02
     -4.764  0.1471E+02  0.2047E+02
     -4.690  0.1436E+02  0.2153E+02
     -4.617  0.6139E+01  0.2198E+02
     -4.543  0.2086E+00  0.2200E+02
     -4.469  0.2044E-03  0.2200E+02
     -4.396  0.3661E-08  0.2200E+02
     -4.322  0.1925E-06  0.2200E+02
     -4.248  0.1624E-02  0.2200E+02
     -4.175  0.2940E+00  0.2202E+02
     -4.101  0.2710E+01  0.2222E+02
     -4.027  0.5549E+01  0.2263E+02
     -3.954  0.5538E+01  0.2304E+02
     -3.880  0.5524E+01  0.2345E+02
     -3.806  0.5753E+01  0.2387E+02
     -3.733  0.7418E+01  0.2442E+02
     -3.659  0.4841E+01  0.2477E+02
     -3.585  0.4896E+01  0.2513E+02
     -3.511  0.4538E+01  0.2547E+02
     -3.438  0.2908E+01  0.2568E+02
     -3.364  0.3502E+01  0.2594E+02
     -3.290  0.8014E+00  0.2600E+02
     -3.217  0.8381E-02  0.2600E+02
     -3.143  0.1901E-05  0.2600E+02
     -3.069  0.7018E-11  0.2600E+02
     -2.996  0.0000E+00  0.2600E+02
     -2.922  0.0000E+00  0.2600E+02
     -2.848  0.0000E+00  0.2600E+02
     -2.775  0.0000E+00  0.2600E+02
     -2.701  0.0000E+00  0.2600E+02
     -2.627  0.0000E+00  0.2600E+02
     -2.554  0.0000E+00  0.2600E+02
     -2.480  0.0000E+00  0.2600E+02
     -2.406  0.0000E+00  0.2600E+02
     -2.332  0.0000E+00  0.2600E+02
     -2.259  0.0000E+00  0.2600E+02
     -2.185  0.0000E+00  0.2600E+02
     -2.111  0.0000E+00  0.2600E+02
     -2.038  0.0000E+00  0.2600E+02
     -1.964  0.0000E+00  0.2600E+02
     -1.890  0.0000E+00  0.2600E+02
     -1.817  0.0000E+00  0.2600E+02
     -1.743  0.0000E+00  0.2600E+02
     -1.669  0.0000E+00  0.2600E+02
     -1.596  0.0000E+00  0.2600E+02
     -1.522  0.0000E+00  0.2600E+02
     -1.448  0.0000E+00  0.2600E+02
     -1.375  0.0000E+00  0.2600E+02
     -1.301  0.0000E+00  0.2600E+02
     -1.227  0.1731E-11  0.2600E+02
     -1.154  0.5755E-06  0.2600E+02
     -1.080  0.3086E-02  0.2600E+02
     -1.006  0.3507E+00  0.2603E+02
     -0.932  0.1712E+01  0.2615E+02
     -0.859  0.1295E+01  0.2625E+02
     -0.785  0.8866E+00  0.2631E+02
     -0.711  0.7465E+00  0.2637E+02
     -0.638  0.6746E+00  0.2642E+02
     -0.564  0.6351E+00  0.2646E+02
     -0.490  0.6166E+00  0.2651E+02
     -0.417  0.6158E+00  0.2656E+02
     -0.343  0.6853E+00  0.2661E+02
     -0.269  0.1457E+01  0.2671E+02
     -0.196  0.1804E+01  0.2685E+02
     -0.122  0.2161E+01  0.2701E+02
     -0.048  0.3543E+01  0.2727E+02
      0.025  0.1750E+01  0.2740E+02
      0.099  0.1128E+01  0.2748E+02
      0.173  0.1032E+01  0.2755E+02
      0.246  0.9812E+00  0.2763E+02
      0.320  0.9644E+00  0.2770E+02
      0.394  0.1019E+01  0.2777E+02
      0.468  0.1116E+01  0.2786E+02
      0.541  0.8349E+00  0.2792E+02
      0.615  0.1496E+01  0.2803E+02
      0.689  0.1252E+01  0.2812E+02
      0.762  0.1054E+01  0.2820E+02
      0.836  0.2928E+01  0.2841E+02
      0.910  0.2721E+01  0.2861E+02
      0.983  0.2349E+01  0.2879E+02
      1.057  0.4304E+01  0.2910E+02
      1.131  0.4461E+01  0.2943E+02
      1.204  0.2697E+01  0.2963E+02
      1.278  0.2480E+01  0.2981E+02
      1.352  0.1931E+01  0.2996E+02
      1.425  0.1250E+01  0.3005E+02
      1.499  0.1096E+01  0.3013E+02
      1.573  0.1229E+01  0.3022E+02
      1.646  0.2271E+01  0.3039E+02
      1.720  0.1606E+01  0.3050E+02
      1.794  0.1248E+01  0.3060E+02
      1.868  0.2091E+01  0.3075E+02
      1.941  0.1850E+01  0.3089E+02
      2.015  0.2455E+01  0.3107E+02
      2.089  0.3512E+01  0.3133E+02
      2.162  0.3382E+01  0.3158E+02
      2.236  0.2371E+01  0.3175E+02
      2.310  0.1047E+01  0.3183E+02
      2.383  0.6330E+00  0.3187E+02
      2.457  0.3724E+00  0.3190E+02
      2.531  0.3845E+00  0.3193E+02
      2.604  0.5080E+00  0.3197E+02
      2.678  0.4015E+00  0.3200E+02
      2.752  0.3804E-01  0.3200E+02
      2.825  0.1162E-03  0.3200E+02
      2.899  0.6341E-08  0.3200E+02
      2.973  0.5223E-14  0.3200E+02
      3.046  0.0000E+00  0.3200E+02
      3.120  0.0000E+00  0.3200E+02
      3.194  0.0000E+00  0.3200E+02
      3.268  0.0000E+00  0.3200E+02
      3.341  0.0000E+00  0.3200E+02
      3.415  0.0000E+00  0.3200E+02
      3.489  0.0000E+00  0.3200E+02
      3.562  0.0000E+00  0.3200E+02
      3.636  0.0000E+00  0.3200E+02
      3.63597249    -18.46946791  301     -3.78699637      1.00000000
    -18.469  0.0000E+00  0.0000E+00  0.0000E+00  0.0000E+00  0.0000E+00  0.0000E+00  0.0000E+00  0.0000E+00  0.0000E+00
    -18.396  0.0000E+00  0.0000E+00  0.0000E+00  0.0000E+00  0.0000E+00  0.0000E+00  0.0000E+00  0.0000E+00  0.0000E+00
    -18.322  0.0000E+00  0.0000E+00  0.0000E+00  0.0000E+00  0.0000E+00  0.0000E+00  0.0000E+00  0.0000E+00  0.0000E+00
    -18.248  0.0000E+00  0.0000E+00  0.0000E+00  0.0000E+00  0.0000E+00  0.0000E+00  0.0000E+00  0.0000E+00  0.0000E+00
    -18.175  0.0000E+00  0.0000E+00  0.0000E+00  0.0000E+00  0.0000E+00  0.0000E+00  0.0000E+00  0.0000E+00  0.0000E+00
    -18.101  0.0000E+00  0.0000E+00  0.0000E+00  0.0000E+00  0.0000E+00  0.0000E+00  0.0000E+00  0.0000E+00  0.0000E+00
    -18.027  0.0000E+00  0.0000E+00  0.0000E+00  0.0000E+00  0.0000E+00  0.0000E+00  0.0000E+00  0.0000E+00  0.0000E+00
    -17.954  0.0000E+00  0.0000E+00  0.0000E+00  0.0000E+00  0.0000E+00  0.0000E+00  0.0000E+00  0.0000E+00  0.0000E+00
    -17.880  0.0000E+00  0.0000E+00  0.0000E+00  0.0000E+00  0.0000E+00  0.0000E+00  0.0000E+00  0.0000E+00  0.0000E+00
    -17.806  0.0000E+00  0.0000E+00  0.0000E+00  0.0000E+00  0.0000E+00  0.0000E+00  0.0000E+00  0.0000E+00  0.0000E+00
    -17.733  0.5932E-15  0.2247E-18  0.3399E-19  0.1231E-18  0.3535E-18  0.3544E-18  0.1826E-21  0.3555E-18  0.1186E-21
    -17.659  0.7478E-09  0.3966E-12  0.6031E-13  0.2166E-12  0.4449E-12  0.4465E-12  0.4385E-15  0.4484E-12  0.2930E-15
    -17.585  0.1460E-04  0.1189E-07  0.1811E-08  0.6499E-08  0.8658E-08  0.8707E-08  0.1906E-10  0.8766E-08  0.1273E-10
    -17.512  0.5380E-02  0.8040E-05  0.1228E-05  0.4400E-05  0.3165E-05  0.3199E-05  0.2132E-07  0.3238E-05  0.1423E-07
    -17.438  0.6413E-01  0.2309E-03  0.3555E-04  0.1268E-03  0.3682E-04  0.3777E-04  0.1185E-05  0.3889E-04  0.7885E-06
    -17.364  0.7189E-01  0.8571E-03  0.1343E-03  0.4743E-03  0.3747E-04  0.4086E-04  0.9249E-05  0.4491E-04  0.6115E-05
    -17.291  0.4227E-01  0.1344E-02  0.2167E-03  0.7532E-03  0.1729E-04  0.2216E-04  0.2739E-04  0.2822E-04  0.1792E-04
    -17.217  0.3158E-01  0.1700E-02  0.2843E-03  0.9683E-03  0.9767E-05  0.1531E-04  0.5483E-04  0.2254E-04  0.3539E-04
    -17.143  0.2564E-01  0.2009E-02  0.3501E-03  0.1165E-02  0.5761E-05  0.1158E-04  0.9221E-04  0.1956E-04  0.5852E-04
    -17.069  0.2155E-01  0.2296E-02  0.4194E-03  0.1358E-02  0.3319E-05  0.9138E-05  0.1413E-03  0.1760E-04  0.8784E-04
    -16.996  0.1842E-01  0.2575E-02  0.4967E-03  0.1559E-02  0.1816E-05  0.7418E-05  0.2048E-03  0.1614E-04  0.1242E-03
    -16.922  0.1586E-01  0.2857E-02  0.5873E-03  0.1776E-02  0.9621E-06  0.6165E-05  0.2868E-03  0.1495E-04  0.1686E-03
    -16.848  0.1366E-01  0.3155E-02  0.7000E-03  0.2023E-02  0.5978E-06  0.5239E-05  0.3934E-03  0.1390E-04  0.2222E-03
    -16.775  0.1168E-01  0.3688E-02  0.1055E-02  0.2522E-02  0.6309E-06  0.4563E-05  0.5348E-03  0.1291E-04  0.2926E-03
    -16.701  0.9829E-02  0.9603E-02  0.7000E-02  0.8534E-02  0.1021E-05  0.4120E-05  0.7908E-03  0.1193E-04  0.7971E-03
    -16.627  0.7974E-02  0.1490E-01  0.1319E-01  0.1440E-01  0.1769E-05  0.3947E-05  0.1396E-02  0.1095E-04  0.3080E-02
    -16.554  0.5848E-02  0.1292E-01  0.1183E-01  0.1270E-01  0.3102E-05  0.4011E-05  0.2260E-02  0.8936E-05  0.5732E-02
    -16.480  0.3171E-02  0.2379E-01  0.2095E-01  0.2155E-01  0.9674E-05  0.8824E-05  0.4945E-02  0.5282E-05  0.8854E-02
    -16.406  0.3357E-02  0.2074E-01  0.1747E-01  0.1766E-01  0.2383E-04  0.2059E-04  0.1286E-01  0.9199E-05  0.1857E-01
    -16.333  0.2074E-01  0.1449E-01  0.2110E-01  0.1681E-01  0.3568E-04  0.3649E-04  0.3181E-01  0.8201E-04  0.7480E-01
    -16.259  0.1199E-01  0.3289E-02  0.1590E-01  0.8830E-02  0.1353E-04  0.2162E-04  0.1551E-01  0.6594E-04  0.5437E-01
    -16.185  0.3443E-03  0.6761E-04  0.9512E-03  0.3713E-03  0.3985E-06  0.1131E-05  0.4888E-03  0.2941E-05  0.2627E-02
    -16.112  0.3064E-06  0.7477E-07  0.1806E-05  0.4600E-06  0.3955E-09  0.2106E-08  0.4924E-06  0.4137E-08  0.4378E-05
    -16.038  0.5685E-11  0.2499E-11  0.6855E-10  0.1087E-10  0.7909E-14  0.8102E-13  0.9866E-11  0.1232E-12  0.1553E-09
    -15.964  0.1586E-17  0.1505E-17  0.4250E-16  0.4215E-17  0.2448E-20  0.5081E-19  0.3018E-17  0.6393E-19  0.9267E-16
    -15.890  0.0000E+00  0.0000E+00  0.0000E+00  0.0000E+00  0.0000E+00  0.0000E+00  0.0000E+00  0.0000E+00  0.0000E+00
    -15.817  0.0000E+00  0.0000E+00  0.0000E+00  0.0000E+00  0.0000E+00  0.0000E+00  0.0000E+00  0.0000E+00  0.0000E+00
    -15.743  0.0000E+00  0.0000E+00  0.0000E+00  0.0000E+00  0.0000E+00  0.0000E+00  0.0000E+00  0.0000E+00  0.0000E+00
    -15.669  0.0000E+00  0.0000E+00  0.0000E+00  0.0000E+00  0.0000E+00  0.0000E+00  0.0000E+00  0.0000E+00  0.0000E+00
    -15.596  0.0000E+00  0.0000E+00  0.0000E+00  0.0000E+00  0.0000E+00  0.0000E+00  0.0000E+00  0.0000E+00  0.0000E+00
    -15.522  0.0000E+00  0.0000E+00  0.0000E+00  0.0000E+00  0.0000E+00  0.0000E+00  0.0000E+00  0.0000E+00  0.0000E+00
    -15.448  0.0000E+00  0.0000E+00  0.0000E+00  0.0000E+00  0.0000E+00  0.0000E+00  0.0000E+00  0.0000E+00  0.0000E+00
    -15.375  0.0000E+00  0.0000E+00  0.0000E+00  0.0000E+00  0.0000E+00  0.0000E+00  0.0000E+00  0.0000E+00  0.0000E+00
    -15.301  0.0000E+00  0.0000E+00  0.0000E+00  0.0000E+00  0.0000E+00  0.0000E+00  0.0000E+00  0.0000E+00  0.0000E+00
    -15.227  0.0000E+00  0.0000E+00  0.0000E+00  0.0000E+00  0.0000E+00  0.0000E+00  0.0000E+00  0.0000E+00  0.0000E+00
    -15.154  0.0000E+00  0.0000E+00  0.0000E+00  0.0000E+00  0.0000E+00  0.0000E+00  0.0000E+00  0.0000E+00  0.0000E+00
    -15.080  0.0000E+00  0.0000E+00  0.0000E+00  0.0000E+00  0.0000E+00  0.0000E+00  0.0000E+00  0.0000E+00  0.0000E+00
    -15.006  0.0000E+00  0.0000E+00  0.0000E+00  0.0000E+00  0.0000E+00  0.0000E+00  0.0000E+00  0.0000E+00  0.0000E+00
    -14.933  0.0000E+00  0.0000E+00  0.0000E+00  0.0000E+00  0.0000E+00  0.0000E+00  0.0000E+00  0.0000E+00  0.0000E+00
    -14.859  0.0000E+00  0.0000E+00  0.0000E+00  0.0000E+00  0.0000E+00  0.0000E+00  0.0000E+00  0.0000E+00  0.0000E+00
    -14.785  0.0000E+00  0.0000E+00  0.0000E+00  0.0000E+00  0.0000E+00  0.0000E+00  0.0000E+00  0.0000E+00  0.0000E+00
    -14.712  0.0000E+00  0.0000E+00  0.0000E+00  0.0000E+00  0.0000E+00  0.0000E+00  0.0000E+00  0.0000E+00  0.0000E+00
    -14.638  0.0000E+00  0.0000E+00  0.0000E+00  0.0000E+00  0.0000E+00  0.0000E+00  0.0000E+00  0.0000E+00  0.0000E+00
    -14.564  0.0000E+00  0.0000E+00  0.0000E+00  0.0000E+00  0.0000E+00  0.0000E+00  0.0000E+00  0.0000E+00  0.0000E+00
    -14.490  0.0000E+00  0.0000E+00  0.0000E+00  0.0000E+00  0.0000E+00  0.0000E+00  0.0000E+00  0.0000E+00  0.0000E+00
    -14.417  0.0000E+00  0.0000E+00  0.0000E+00  0.0000E+00  0.0000E+00  0.0000E+00  0.0000E+00  0.0000E+00  0.0000E+00
    -14.343  0.0000E+00  0.0000E+00  0.0000E+00  0.0000E+00  0.0000E+00  0.0000E+00  0.0000E+00  0.0000E+00  0.0000E+00
    -14.269  0.0000E+00  0.0000E+00  0.0000E+00  0.0000E+00  0.0000E+00  0.0000E+00  0.0000E+00  0.0000E+00  0.0000E+00
    -14.196  0.0000E+00  0.0000E+00  0.0000E+00  0.0000E+00  0.0000E+00  0.0000E+00  0.0000E+00  0.0000E+00  0.0000E+00
    -14.122  0.0000E+00  0.0000E+00  0.0000E+00  0.0000E+00  0.0000E+00  0.0000E+00  0.0000E+00  0.0000E+00  0.0000E+00
    -14.048  0.0000E+00  0.0000E+00  0.0000E+00  0.0000E+00  0.0000E+00  0.0000E+00  0.0000E+00  0.0000E+00  0.0000E+00
    -13.975  0.0000E+00  0.0000E+00  0.0000E+00  0.0000E+00  0.0000E+00  0.0000E+00  0.0000E+00  0.0000E+00  0.0000E+00
    -13.901  0.0000E+00  0.0000E+00  0.0000E+00  0.0000E+00  0.0000E+00  0.0000E+00  0.0000E+00  0.0000E+00  0.0000E+00
    -13.827  0.0000E+00  0.0000E+00  0.0000E+00  0.0000E+00  0.0000E+00  0.0000E+00  0.0000E+00  0.0000E+00  0.0000E+00
    -13.754  0.0000E+00  0.0000E+00  0.0000E+00  0.0000E+00  0.0000E+00  0.0000E+00  0.0000E+00  0.0000E+00  0.0000E+00
    -13.680  0.0000E+00  0.0000E+00  0.0000E+00  0.0000E+00  0.0000E+00  0.0000E+00  0.0000E+00  0.0000E+00  0.0000E+00
    -13.606  0.0000E+00  0.0000E+00  0.0000E+00  0.0000E+00  0.0000E+00  0.0000E+00  0.0000E+00  0.0000E+00  0.0000E+00
    -13.533  0.0000E+00  0.0000E+00  0.0000E+00  0.0000E+00  0.0000E+00  0.0000E+00  0.0000E+00  0.0000E+00  0.0000E+00
    -13.459  0.0000E+00  0.0000E+00  0.0000E+00  0.0000E+00  0.0000E+00  0.0000E+00  0.0000E+00  0.0000E+00  0.0000E+00
    -13.385  0.0000E+00  0.0000E+00  0.0000E+00  0.0000E+00  0.0000E+00  0.0000E+00  0.0000E+00  0.0000E+00  0.0000E+00
    -13.312  0.0000E+00  0.0000E+00  0.0000E+00  0.0000E+00  0.0000E+00  0.0000E+00  0.0000E+00  0.0000E+00  0.0000E+00
    -13.238  0.0000E+00  0.0000E+00  0.0000E+00  0.0000E+00  0.0000E+00  0.0000E+00  0.0000E+00  0.0000E+00  0.0000E+00
    -13.164  0.0000E+00  0.0000E+00  0.0000E+00  0.0000E+00  0.0000E+00  0.0000E+00  0.0000E+00  0.0000E+00  0.0000E+00
    -13.090  0.0000E+00  0.0000E+00  0.0000E+00  0.0000E+00  0.0000E+00  0.0000E+00  0.0000E+00  0.0000E+00  0.0000E+00
    -13.017  0.0000E+00  0.0000E+00  0.0000E+00  0.0000E+00  0.0000E+00  0.0000E+00  0.0000E+00  0.0000E+00  0.0000E+00
    -12.943  0.0000E+00  0.0000E+00  0.0000E+00  0.0000E+00  0.0000E+00  0.0000E+00  0.0000E+00  0.0000E+00  0.0000E+00
    -12.869  0.0000E+00  0.0000E+00  0.0000E+00  0.0000E+00  0.0000E+00  0.0000E+00  0.0000E+00  0.0000E+00  0.0000E+00
    -12.796  0.0000E+00  0.0000E+00  0.0000E+00  0.0000E+00  0.0000E+00  0.0000E+00  0.0000E+00  0.0000E+00  0.0000E+00
    -12.722  0.0000E+00  0.0000E+00  0.0000E+00  0.0000E+00  0.0000E+00  0.0000E+00  0.0000E+00  0.0000E+00  0.0000E+00
    -12.648  0.0000E+00  0.0000E+00  0.0000E+00  0.0000E+00  0.0000E+00  0.0000E+00  0.0000E+00  0.0000E+00  0.0000E+00
    -12.575  0.0000E+00  0.0000E+00  0.0000E+00  0.0000E+00  0.0000E+00  0.0000E+00  0.0000E+00  0.0000E+00  0.0000E+00
    -12.501  0.0000E+00  0.0000E+00  0.0000E+00  0.0000E+00  0.0000E+00  0.0000E+00  0.0000E+00  0.0000E+00  0.0000E+00
    -12.427  0.0000E+00  0.0000E+00  0.0000E+00  0.0000E+00  0.0000E+00  0.0000E+00  0.0000E+00  0.0000E+00  0.0000E+00
    -12.354  0.0000E+00  0.0000E+00  0.0000E+00  0.0000E+00  0.0000E+00  0.0000E+00  0.0000E+00  0.0000E+00  0.0000E+00
    -12.280  0.0000E+00  0.0000E+00  0.0000E+00  0.0000E+00  0.0000E+00  0.0000E+00  0.0000E+00  0.0000E+00  0.0000E+00
    -12.206  0.0000E+00  0.0000E+00  0.0000E+00  0.0000E+00  0.0000E+00  0.0000E+00  0.0000E+00  0.0000E+00  0.0000E+00
    -12.133  0.0000E+00  0.0000E+00  0.0000E+00  0.0000E+00  0.0000E+00  0.0000E+00  0.0000E+00  0.0000E+00  0.0000E+00
    -12.059  0.0000E+00  0.0000E+00  0.0000E+00  0.0000E+00  0.0000E+00  0.0000E+00  0.0000E+00  0.0000E+00  0.0000E+00
    -11.985  0.0000E+00  0.0000E+00  0.0000E+00  0.0000E+00  0.0000E+00  0.0000E+00  0.0000E+00  0.0000E+00  0.0000E+00
    -11.912  0.0000E+00  0.0000E+00  0.0000E+00  0.0000E+00  0.0000E+00  0.0000E+00  0.0000E+00  0.0000E+00  0.0000E+00
    -11.838  0.0000E+00  0.0000E+00  0.0000E+00  0.0000E+00  0.0000E+00  0.0000E+00  0.0000E+00  0.0000E+00  0.0000E+00
    -11.764  0.0000E+00  0.0000E+00  0.0000E+00  0.0000E+00  0.0000E+00  0.0000E+00  0.0000E+00  0.0000E+00  0.0000E+00
    -11.690  0.0000E+00  0.0000E+00  0.0000E+00  0.0000E+00  0.0000E+00  0.0000E+00  0.0000E+00  0.0000E+00  0.0000E+00
    -11.617  0.0000E+00  0.0000E+00  0.0000E+00  0.0000E+00  0.0000E+00  0.0000E+00  0.0000E+00  0.0000E+00  0.0000E+00
    -11.543  0.0000E+00  0.0000E+00  0.0000E+00  0.0000E+00  0.0000E+00  0.0000E+00  0.0000E+00  0.0000E+00  0.0000E+00
    -11.469  0.0000E+00  0.0000E+00  0.0000E+00  0.0000E+00  0.0000E+00  0.0000E+00  0.0000E+00  0.0000E+00  0.0000E+00
    -11.396  0.0000E+00  0.0000E+00  0.0000E+00  0.0000E+00  0.0000E+00  0.0000E+00  0.0000E+00  0.0000E+00  0.0000E+00
    -11.322  0.0000E+00  0.0000E+00  0.0000E+00  0.0000E+00  0.0000E+00  0.0000E+00  0.0000E+00  0.0000E+00  0.0000E+00
    -11.248  0.0000E+00  0.0000E+00  0.0000E+00  0.0000E+00  0.0000E+00  0.0000E+00  0.0000E+00  0.0000E+00  0.0000E+00
    -11.175  0.0000E+00  0.0000E+00  0.0000E+00  0.0000E+00  0.0000E+00  0.0000E+00  0.0000E+00  0.0000E+00  0.0000E+00
    -11.101  0.0000E+00  0.0000E+00  0.0000E+00  0.0000E+00  0.0000E+00  0.0000E+00  0.0000E+00  0.0000E+00  0.0000E+00
    -11.027  0.0000E+00  0.0000E+00  0.0000E+00  0.0000E+00  0.0000E+00  0.0000E+00  0.0000E+00  0.0000E+00  0.0000E+00
    -10.954  0.0000E+00  0.0000E+00  0.0000E+00  0.0000E+00  0.0000E+00  0.0000E+00  0.0000E+00  0.0000E+00  0.0000E+00
    -10.880  0.0000E+00  0.0000E+00  0.0000E+00  0.0000E+00  0.0000E+00  0.0000E+00  0.0000E+00  0.0000E+00  0.0000E+00
    -10.806  0.0000E+00  0.0000E+00  0.0000E+00  0.0000E+00  0.0000E+00  0.0000E+00  0.0000E+00  0.0000E+00  0.0000E+00
    -10.733  0.0000E+00  0.0000E+00  0.0000E+00  0.0000E+00  0.0000E+00  0.0000E+00  0.0000E+00  0.0000E+00  0.0000E+00
    -10.659  0.0000E+00  0.0000E+00  0.0000E+00  0.0000E+00  0.0000E+00  0.0000E+00  0.0000E+00  0.0000E+00  0.0000E+00
    -10.585  0.0000E+00  0.0000E+00  0.0000E+00  0.0000E+00  0.0000E+00  0.0000E+00  0.0000E+00  0.0000E+00  0.0000E+00
    -10.512  0.0000E+00  0.0000E+00  0.0000E+00  0.0000E+00  0.0000E+00  0.0000E+00  0.0000E+00  0.0000E+00  0.0000E+00
    -10.438  0.0000E+00  0.0000E+00  0.0000E+00  0.0000E+00  0.0000E+00  0.0000E+00  0.0000E+00  0.0000E+00  0.0000E+00
    -10.364  0.0000E+00  0.0000E+00  0.0000E+00  0.0000E+00  0.0000E+00  0.0000E+00  0.0000E+00  0.0000E+00  0.0000E+00
    -10.290  0.0000E+00  0.0000E+00  0.0000E+00  0.0000E+00  0.0000E+00  0.0000E+00  0.0000E+00  0.0000E+00  0.0000E+00
    -10.217  0.0000E+00  0.0000E+00  0.0000E+00  0.0000E+00  0.0000E+00  0.0000E+00  0.0000E+00  0.0000E+00  0.0000E+00
    -10.143  0.0000E+00  0.0000E+00  0.0000E+00  0.0000E+00  0.0000E+00  0.0000E+00  0.0000E+00  0.0000E+00  0.0000E+00
    -10.069  0.0000E+00  0.0000E+00  0.0000E+00  0.0000E+00  0.0000E+00  0.0000E+00  0.0000E+00  0.0000E+00  0.0000E+00
     -9.996  0.0000E+00  0.0000E+00  0.0000E+00  0.0000E+00  0.0000E+00  0.0000E+00  0.0000E+00  0.0000E+00  0.0000E+00
     -9.922  0.0000E+00  0.0000E+00  0.0000E+00  0.0000E+00  0.0000E+00  0.0000E+00  0.0000E+00  0.0000E+00  0.0000E+00
     -9.848  0.0000E+00  0.0000E+00  0.0000E+00  0.0000E+00  0.0000E+00  0.0000E+00  0.0000E+00  0.0000E+00  0.0000E+00
     -9.775  0.0000E+00  0.0000E+00  0.0000E+00  0.0000E+00  0.0000E+00  0.0000E+00  0.0000E+00  0.0000E+00  0.0000E+00
     -9.701  0.0000E+00  0.0000E+00  0.0000E+00  0.0000E+00  0.0000E+00  0.0000E+00  0.0000E+00  0.0000E+00  0.0000E+00
     -9.627  0.0000E+00  0.0000E+00  0.0000E+00  0.0000E+00  0.0000E+00  0.0000E+00  0.0000E+00  0.0000E+00  0.0000E+00
     -9.554  0.0000E+00  0.0000E+00  0.0000E+00  0.0000E+00  0.0000E+00  0.0000E+00  0.0000E+00  0.0000E+00  0.0000E+00
     -9.480  0.0000E+00  0.0000E+00  0.0000E+00  0.0000E+00  0.0000E+00  0.0000E+00  0.0000E+00  0.0000E+00  0.0000E+00
     -9.406  0.5967E-17  0.8557E-27  0.2044E-21  0.2044E-21  0.3953E-18  0.3953E-18  0.2648E-19  0.6020E-18  0.7943E-19
     -9.333  0.3901E-10  0.9964E-15  0.3256E-14  0.3256E-14  0.2584E-11  0.2584E-11  0.1730E-12  0.3930E-11  0.5191E-12
     -9.259  0.3041E-05  0.1138E-09  0.3722E-09  0.3722E-09  0.2014E-06  0.2014E-06  0.1350E-07  0.3061E-06  0.4049E-07
     -9.185  0.4100E-02  0.2600E-06  0.8513E-06  0.8513E-06  0.2715E-03  0.2715E-03  0.1821E-04  0.4116E-03  0.5464E-04
     -9.111  0.1416E+00  0.1914E-04  0.6288E-04  0.6288E-04  0.9368E-02  0.9369E-02  0.6306E-03  0.1411E-01  0.1892E-02
     -9.038  0.3087E+00  0.1188E-03  0.3934E-03  0.3934E-03  0.2035E-01  0.2035E-01  0.1387E-02  0.2990E-01  0.4161E-02
     -8.964  0.1974E+00  0.2096E-03  0.7046E-03  0.7046E-03  0.1282E-01  0.1282E-01  0.9078E-03  0.1738E-01  0.2723E-02
     -8.890  0.1529E+00  0.2543E-03  0.8683E-03  0.8683E-03  0.9630E-02  0.9630E-02  0.7119E-03  0.1174E-01  0.2136E-02
     -8.817  0.1378E+00  0.2755E-03  0.9495E-03  0.9495E-03  0.8241E-02  0.8241E-02  0.6281E-03  0.8874E-02  0.1884E-02
     -8.743  0.1377E+00  0.2853E-03  0.9523E-03  0.9581E-03  0.7565E-02  0.7458E-02  0.6139E-03  0.6839E-02  0.1701E-02
     -8.669  0.2343E+00  0.5642E-03  0.8344E-03  0.1131E-02  0.1290E-01  0.7292E-02  0.2931E-02  0.5345E-02  0.1452E-02
     -8.596  0.4467E+00  0.9693E-03  0.4451E-03  0.1174E-02  0.2223E-01  0.7485E-02  0.7030E-02  0.5770E-02  0.8039E-03
     -8.522  0.2113E+00  0.5033E-03  0.5660E-04  0.3484E-03  0.1417E-01  0.7876E-02  0.4142E-02  0.1015E-01  0.1021E-03
     -8.448  0.2607E+00  0.7314E-03  0.6289E-04  0.4002E-03  0.3696E-01  0.3424E-01  0.3052E-02  0.3875E-01  0.1844E-05
     -8.375  0.2414E+00  0.1534E-02  0.1797E-03  0.8392E-03  0.2967E-01  0.2953E-01  0.2627E-02  0.3686E-01  0.3034E-05
     -8.301  0.2104E+00  0.1512E-01  0.4599E-03  0.1455E-02  0.1742E-01  0.1998E-01  0.2413E-02  0.3163E-01  0.8598E-04
     -8.227  0.2641E+00  0.1359E+00  0.2189E-02  0.3825E-02  0.1244E-01  0.1989E-01  0.4142E-02  0.4001E-01  0.2019E-02
     -8.154  0.1949E+00  0.1447E+00  0.1714E-02  0.3420E-02  0.8764E-02  0.1823E-01  0.8697E-02  0.2688E-01  0.7206E-02
     -8.080  0.1892E-01  0.9340E-01  0.8993E-03  0.1923E-02  0.9512E-02  0.1240E-01  0.1297E-01  0.3876E-02  0.1207E-01
     -8.006  0.1736E-02  0.9970E-01  0.9094E-02  0.2074E-01  0.1771E-01  0.4493E-01  0.2173E-01  0.2846E-01  0.2268E-01
     -7.933  0.2528E-02  0.1108E+00  0.3080E-01  0.4320E-01  0.4659E-01  0.8378E-01  0.4529E-01  0.6309E-01  0.5353E-01
     -7.859  0.6335E-02  0.5353E-01  0.2471E-01  0.3645E-01  0.3444E-01  0.4402E-01  0.3408E-01  0.5607E-01  0.5060E-01
     -7.785  0.8946E-02  0.2380E-01  0.1037E-01  0.2065E-01  0.1200E-01  0.1781E-01  0.1716E-01  0.3554E-01  0.3881E-01
     -7.711  0.1009E-01  0.1872E-01  0.7997E-02  0.1655E-01  0.8723E-02  0.1533E-01  0.1552E-01  0.3083E-01  0.3992E-01
     -7.638  0.1084E-01  0.1573E-01  0.7046E-02  0.1468E-01  0.7060E-02  0.1413E-01  0.1546E-01  0.2921E-01  0.4299E-01
     -7.564  0.1126E-01  0.1377E-01  0.6500E-02  0.1359E-01  0.5822E-02  0.1332E-01  0.1608E-01  0.2865E-01  0.4742E-01
     -7.490  0.1139E-01  0.1246E-01  0.6161E-02  0.1293E-01  0.4849E-02  0.1278E-01  0.1716E-01  0.2870E-01  0.5311E-01
     -7.417  0.1127E-01  0.1159E-01  0.5943E-02  0.1261E-01  0.4081E-02  0.1249E-01  0.1856E-01  0.2921E-01  0.6002E-01
     -7.343  0.1098E-01  0.1112E-01  0.5806E-02  0.1263E-01  0.3526E-02  0.1250E-01  0.2006E-01  0.3017E-01  0.6814E-01
     -7.269  0.1057E-01  0.1122E-01  0.5736E-02  0.1323E-01  0.3406E-02  0.1304E-01  0.2119E-01  0.3184E-01  0.7749E-01
     -7.196  0.1028E-01  0.1433E-01  0.6906E-02  0.1695E-01  0.6083E-02  0.1573E-01  0.2066E-01  0.3578E-01  0.8821E-01
     -7.122  0.1039E-01  0.3650E-01  0.2972E-01  0.4321E-01  0.2443E-01  0.2510E-01  0.2576E-01  0.4548E-01  0.1095E+00
     -7.048  0.9716E-02  0.3662E-01  0.4911E-01  0.5276E-01  0.5170E-01  0.4304E-01  0.6982E-01  0.5688E-01  0.2058E+00
     -6.975  0.9894E-02  0.1873E-01  0.3840E-01  0.3589E-01  0.5052E-01  0.4495E-01  0.1002E+00  0.5935E-01  0.2585E+00