   3   3   1   0
  0.1126013E+03  0.3950000E-09  0.3950000E-09  0.2500000E-08  0.5000000E-15
  1.000000000000000E-004
  CAR 
 NiI2                                    
      4.85934656    -17.24534922  301     -2.56256129      1.00000000
    -17.245  0.0000E+00  0.0000E+00
    -17.172  0.0000E+00  0.0000E+00
    -17.098  0.0000E+00  0.0000E+00
    -17.024  0.0000E+00  0.0000E+00
    -16.951  0.0000E+00  0.0000E+00
    -16.877  0.0000E+00  0.0000E+00
    -16.803  0.0000E+00  0.0000E+00
    -16.730  0.0000E+00  0.0000E+00
    -16.656  0.0000E+00  0.0000E+00
    -16.582  0.0000E+00  0.0000E+00
    -16.509  0.1700E-13  0.1253E-14
    -16.435  0.2143E-07  0.1579E-08
    -16.361  0.4186E-03  0.3084E-04
    -16.287  0.1546E+00  0.1142E-01
    -16.214  0.1857E+01  0.1482E+00
    -16.140  0.2149E+01  0.3066E+00
    -16.066  0.1362E+01  0.4070E+00
    -15.993  0.1103E+01  0.4882E+00
    -15.919  0.9771E+00  0.5602E+00
    -15.845  0.9043E+00  0.6269E+00
    -15.772  0.8615E+00  0.6903E+00
    -15.698  0.8397E+00  0.7522E+00
    -15.624  0.8361E+00  0.8138E+00
    -15.551  0.9076E+00  0.8807E+00
    -15.477  0.2502E+01  0.1065E+01
    -15.403  0.4175E+01  0.1373E+01
    -15.330  0.3774E+01  0.1651E+01
    -15.256  0.6152E+01  0.2104E+01
    -15.182  0.6523E+01  0.2585E+01
    -15.109  0.1176E+02  0.3451E+01
    -15.035  0.7128E+01  0.3976E+01
    -14.961  0.3220E+00  0.4000E+01
    -14.888  0.5082E-03  0.4000E+01
    -14.814  0.1724E-07  0.4000E+01
    -14.740  0.1002E-13  0.4000E+01
    -14.666  0.0000E+00  0.4000E+01
    -14.593  0.0000E+00  0.4000E+01
    -14.519  0.0000E+00  0.4000E+01
    -14.445  0.0000E+00  0.4000E+01
    -14.372  0.0000E+00  0.4000E+01
    -14.298  0.0000E+00  0.4000E+01
    -14.224  0.0000E+00  0.4000E+01
    -14.151  0.0000E+00  0.4000E+01
    -14.077  0.0000E+00  0.4000E+01
    -14.003  0.0000E+00  0.4000E+01
    -13.930  0.0000E+00  0.4000E+01
    -13.856  0.0000E+00  0.4000E+01
    -13.782  0.0000E+00  0.4000E+01
    -13.709  0.0000E+00  0.4000E+01
    -13.635  0.0000E+00  0.4000E+01
    -13.561  0.0000E+00  0.4000E+01
    -13.488  0.0000E+00  0.4000E+01
    -13.414  0.0000E+00  0.4000E+01
    -13.340  0.0000E+00  0.4000E+01
    -13.267  0.0000E+00  0.4000E+01
    -13.193  0.0000E+00  0.4000E+01
    -13.119  0.0000E+00  0.4000E+01
    -13.045  0.0000E+00  0.4000E+01
    -12.972  0.0000E+00  0.4000E+01
    -12.898  0.0000E+00  0.4000E+01
    -12.824  0.0000E+00  0.4000E+01
    -12.751  0.0000E+00  0.4000E+01
    -12.677  0.0000E+00  0.4000E+01
    -12.603  0.0000E+00  0.4000E+01
    -12.530  0.0000E+00  0.4000E+01
    -12.456  0.0000E+00  0.4000E+01
    -12.382  0.0000E+00  0.4000E+01
    -12.309  0.0000E+00  0.4000E+01
    -12.235  0.0000E+00  0.4000E+01
    -12.161  0.0000E+00  0.4000E+01
    -12.088  0.0000E+00  0.4000E+01
    -12.014  0.0000E+00  0.4000E+01
    -11.940  0.0000E+00  0.4000E+01
    -11.867  0.0000E+00  0.4000E+01
    -11.793  0.0000E+00  0.4000E+01
    -11.719  0.0000E+00  0.4000E+01
    -11.645  0.0000E+00  0.4000E+01
    -11.572  0.0000E+00  0.4000E+01
    -11.498  0.0000E+00  0.4000E+01
    -11.424  0.0000E+00  0.4000E+01
    -11.351  0.0000E+00  0.4000E+01
    -11.277  0.0000E+00  0.4000E+01
    -11.203  0.0000E+00  0.4000E+01
    -11.130  0.0000E+00  0.4000E+01
    -11.056  0.0000E+00  0.4000E+01
    -10.982  0.0000E+00  0.4000E+01
    -10.909  0.0000E+00  0.4000E+01
    -10.835  0.0000E+00  0.4000E+01
    -10.761  0.0000E+00  0.4000E+01
    -10.688  0.0000E+00  0.4000E+01
    -10.614  0.0000E+00  0.4000E+01
    -10.540  0.0000E+00  0.4000E+01
    -10.467  0.0000E+00  0.4000E+01
    -10.393  0.0000E+00  0.4000E+01
    -10.319  0.0000E+00  0.4000E+01
    -10.246  0.0000E+00  0.4000E+01
    -10.172  0.0000E+00  0.4000E+01
    -10.098  0.0000E+00  0.4000E+01
    -10.024  0.0000E+00  0.4000E+01
     -9.951  0.0000E+00  0.4000E+01
     -9.877  0.0000E+00  0.4000E+01
     -9.803  0.0000E+00  0.4000E+01
     -9.730  0.0000E+00  0.4000E+01
     -9.656  0.0000E+00  0.4000E+01
     -9.582  0.0000E+00  0.4000E+01
     -9.509  0.0000E+00  0.4000E+01
     -9.435  0.0000E+00  0.4000E+01
     -9.361  0.0000E+00  0.4000E+01
     -9.288  0.0000E+00  0.4000E+01
     -9.214  0.0000E+00  0.4000E+01
     -9.140  0.0000E+00  0.4000E+01
     -9.067  0.0000E+00  0.4000E+01
     -8.993  0.0000E+00  0.4000E+01
     -8.919  0.0000E+00  0.4000E+01
     -8.846  0.0000E+00  0.4000E+01
     -8.772  0.0000E+00  0.4000E+01
     -8.698  0.0000E+00  0.4000E+01
     -8.625  0.0000E+00  0.4000E+01
     -8.551  0.0000E+00  0.4000E+01
     -8.477  0.0000E+00  0.4000E+01
     -8.403  0.0000E+00  0.4000E+01
     -8.330  0.0000E+00  0.4000E+01
     -8.256  0.0000E+00  0.4000E+01
     -8.182  0.5023E-16  0.4000E+01
     -8.109  0.3020E-09  0.4000E+01
     -8.035  0.2415E-04  0.4000E+01
     -7.961  0.3337E-01  0.4002E+01
     -7.888  0.1176E+01  0.4089E+01
     -7.814  0.2594E+01  0.4280E+01
     -7.740  0.1649E+01  0.4402E+01
     -7.667  0.1257E+01  0.4494E+01
     -7.593  0.1107E+01  0.4576E+01
     -7.519  0.1066E+01  0.4654E+01
     -7.446  0.1675E+01  0.4778E+01
     -7.372  0.3055E+01  0.5003E+01
     -7.298  0.1631E+01  0.5123E+01
     -7.225  0.2757E+01  0.5326E+01
     -7.151  0.2536E+01  0.5513E+01
     -7.077  0.2345E+01  0.5686E+01
     -7.004  0.5057E+01  0.6058E+01
     -6.930  0.4618E+01  0.6399E+01
     -6.856  0.2146E+01  0.6557E+01
     -6.782  0.2978E+01  0.6776E+01
     -6.709  0.4674E+01  0.7121E+01
     -6.635  0.3081E+01  0.7348E+01
     -6.561  0.1534E+01  0.7461E+01
     -6.488  0.1261E+01  0.7554E+01
     -6.414  0.1136E+01  0.7637E+01
     -6.340  0.1065E+01  0.7716E+01
     -6.267  0.1026E+01  0.7791E+01
     -6.193  0.1010E+01  0.7866E+01
     -6.119  0.1013E+01  0.7940E+01
     -6.046  0.1044E+01  0.8017E+01
     -5.972  0.1230E+01  0.8108E+01
     -5.898  0.2714E+01  0.8308E+01
     -5.825  0.3952E+01  0.8599E+01
     -5.751  0.3381E+01  0.8848E+01
     -5.677  0.3071E+01  0.9075E+01
     -5.604  0.3866E+01  0.9360E+01
     -5.530  0.4130E+01  0.9664E+01
     -5.456  0.5200E+01  0.1005E+02
     -5.382  0.1056E+02  0.1082E+02
     -5.309  0.1713E+02  0.1209E+02
     -5.235  0.1137E+02  0.1293E+02
     -5.161  0.3685E+01  0.1320E+02
     -5.088  0.1988E+01  0.1334E+02
     -5.014  0.2330E+01  0.1351E+02
     -4.940  0.3022E+01  0.1374E+02
     -4.867  0.2184E+01  0.1390E+02
     -4.793  0.1749E+01  0.1403E+02
     -4.719  0.1671E+01  0.1415E+02
     -4.646  0.1572E+01  0.1427E+02
     -4.572  0.1530E+01  0.1438E+02
     -4.498  0.1896E+01  0.1452E+02
     -4.425  0.3066E+01  0.1474E+02
     -4.351  0.3105E+01  0.1497E+02
     -4.277  0.3487E+01  0.1523E+02
     -4.204  0.3056E+01  0.1546E+02
     -4.130  0.1249E+01  0.1555E+02
     -4.056  0.1172E+01  0.1563E+02
     -3.983  0.2305E+01  0.1580E+02
     -3.909  0.7141E+01  0.1633E+02
     -3.835  0.7755E+01  0.1690E+02
     -3.761  0.1069E+02  0.1769E+02
     -3.688  0.1023E+02  0.1844E+02
     -3.614  0.1263E+02  0.1937E+02
     -3.540  0.1476E+02  0.2046E+02
     -3.467  0.1438E+02  0.2152E+02
     -3.393  0.6286E+01  0.2198E+02
     -3.319  0.2223E+00  0.2200E+02
     -3.246  0.2290E-03  0.2200E+02
     -3.172  0.4327E-08  0.2200E+02
     -3.098  0.1695E-06  0.2200E+02
     -3.025  0.1497E-02  0.2200E+02
     -2.951  0.2824E+00  0.2202E+02
     -2.877  0.2671E+01  0.2222E+02
     -2.804  0.5532E+01  0.2263E+02
     -2.730  0.5547E+01  0.2303E+02
     -2.656  0.5524E+01  0.2344E+02
     -2.583  0.5743E+01  0.2386E+02
     -2.509  0.7408E+01  0.2441E+02
     -2.435  0.4891E+01  0.2477E+02
     -2.362  0.4868E+01  0.2513E+02
     -2.288  0.4572E+01  0.2547E+02
     -2.214  0.2903E+01  0.2568E+02
     -2.140  0.3513E+01  0.2594E+02
     -2.067  0.8231E+00  0.2600E+02
     -1.993  0.8903E-02  0.2600E+02
     -1.919  0.2098E-05  0.2600E+02
     -1.846  0.8063E-11  0.2600E+02
     -1.772  0.0000E+00  0.2600E+02
     -1.698  0.0000E+00  0.2600E+02
     -1.625  0.0000E+00  0.2600E+02
     -1.551  0.0000E+00  0.2600E+02
     -1.477  0.0000E+00  0.2600E+02
     -1.404  0.0000E+00  0.2600E+02
     -1.330  0.0000E+00  0.2600E+02
     -1.256  0.0000E+00  0.2600E+02
     -1.183  0.0000E+00  0.2600E+02
     -1.109  0.0000E+00  0.2600E+02
     -1.035  0.0000E+00  0.2600E+02
     -0.962  0.0000E+00  0.2600E+02
     -0.888  0.0000E+00  0.2600E+02
     -0.814  0.0000E+00  0.2600E+02
     -0.741  0.0000E+00  0.2600E+02
     -0.667  0.0000E+00  0.2600E+02
     -0.593  0.0000E+00  0.2600E+02
     -0.519  0.0000E+00  0.2600E+02
     -0.446  0.0000E+00  0.2600E+02
     -0.372  0.0000E+00  0.2600E+02
     -0.298  0.0000E+00  0.2600E+02
     -0.225  0.0000E+00  0.2600E+02
     -0.151  0.0000E+00  0.2600E+02
     -0.077  0.0000E+00  0.2600E+02
     -0.004  0.1499E-11  0.2600E+02
      0.070  0.5187E-06  0.2600E+02
      0.144  0.2893E-02  0.2600E+02
      0.217  0.3405E+00  0.2603E+02
      0.291  0.1706E+01  0.2615E+02
      0.365  0.1302E+01  0.2625E+02
      0.438  0.8887E+00  0.2631E+02
      0.512  0.7475E+00  0.2637E+02
      0.586  0.6752E+00  0.2642E+02
      0.659  0.6354E+00  0.2646E+02
      0.733  0.6167E+00  0.2651E+02
      0.807  0.6157E+00  0.2655E+02
      0.881  0.6853E+00  0.2661E+02
      0.954  0.1458E+01  0.2671E+02
      1.028  0.1802E+01  0.2685E+02
      1.102  0.2148E+01  0.2700E+02
      1.175  0.3545E+01  0.2727E+02
      1.249  0.1762E+01  0.2739E+02
      1.323  0.1130E+01  0.2748E+02
      1.396  0.1033E+01  0.2755E+02
      1.470  0.9812E+00  0.2763E+02
      1.544  0.9642E+00  0.2770E+02
      1.617  0.1019E+01  0.2777E+02
      1.691  0.1116E+01  0.2785E+02
      1.765  0.8323E+00  0.2792E+02
      1.838  0.1488E+01  0.2803E+02
      1.912  0.1259E+01  0.2812E+02
      1.986  0.9972E+00  0.2819E+02
      2.059  0.2828E+01  0.2840E+02
      2.133  0.2806E+01  0.2861E+02
      2.207  0.2391E+01  0.2878E+02
      2.280  0.4312E+01  0.2910E+02
      2.354  0.4551E+01  0.2944E+02
      2.428  0.2778E+01  0.2964E+02
      2.502  0.2366E+01  0.2982E+02
      2.575  0.1907E+01  0.2996E+02
      2.649  0.1249E+01  0.3005E+02
      2.723  0.1097E+01  0.3013E+02
      2.796  0.1228E+01  0.3022E+02
      2.870  0.2265E+01  0.3039E+02
      2.944  0.1611E+01  0.3050E+02
      3.017  0.1295E+01  0.3060E+02
      3.091  0.2095E+01  0.3075E+02
      3.165  0.1796E+01  0.3089E+02
      3.238  0.2443E+01  0.3107E+02
      3.312  0.3492E+01  0.3132E+02
      3.386  0.3409E+01  0.3158E+02
      3.459  0.2368E+01  0.3175E+02
      3.533  0.1049E+01  0.3183E+02
      3.607  0.6391E+00  0.3187E+02
      3.680  0.3744E+00  0.3190E+02
      3.754  0.3832E+00  0.3193E+02
      3.828  0.5081E+00  0.3197E+02
      3.901  0.4018E+00  0.3200E+02
      3.975  0.3800E-01  0.3200E+02
      4.049  0.1158E-03  0.3200E+02
      4.123  0.6315E-08  0.3200E+02
      4.196  0.5198E-14  0.3200E+02
      4.270  0.0000E+00  0.3200E+02
      4.344  0.0000E+00  0.3200E+02
      4.417  0.0000E+00  0.3200E+02
      4.491  0.0000E+00  0.3200E+02
      4.565  0.0000E+00  0.3200E+02
      4.638  0.0000E+00  0.3200E+02
      4.712  0.0000E+00  0.3200E+02
      4.786  0.0000E+00  0.3200E+02
      4.859  0.0000E+00  0.3200E+02
      4.85934656    -17.24534922  301     -2.56256129      1.00000000
    -17.245  0.0000E+00  0.0000E+00  0.0000E+00  0.0000E+00  0.0000E+00  0.0000E+00  0.0000E+00  0.0000E+00  0.0000E+00
    -17.172  0.0000E+00  0.0000E+00  0.0000E+00  0.0000E+00  0.0000E+00  0.0000E+00  0.0000E+00  0.0000E+00  0.0000E+00
    -17.098  0.0000E+00  0.0000E+00  0.0000E+00  0.0000E+00  0.0000E+00  0.0000E+00  0.0000E+00  0.0000E+00  0.0000E+00
    -17.024  0.0000E+00  0.0000E+00  0.0000E+00  0.0000E+00  0.0000E+00  0.0000E+00  0.0000E+00  0.0000E+00  0.0000E+00
    -16.951  0.0000E+00  0.0000E+00  0.0000E+00  0.0000E+00  0.0000E+00  0.0000E+00  0.0000E+00  0.0000E+00  0.0000E+00
    -16.877  0.0000E+00  0.0000E+00  0.0000E+00  0.0000E+00  0.0000E+00  0.0000E+00  0.0000E+00  0.0000E+00  0.0000E+00
    -16.803  0.0000E+00  0.0000E+00  0.0000E+00  0.0000E+00  0.0000E+00  0.0000E+00  0.0000E+00  0.0000E+00  0.0000E+00
    -16.730  0.0000E+00  0.0000E+00  0.0000E+00  0.0000E+00  0.0000E+00  0.0000E+00  0.0000E+00  0.0000E+00  0.0000E+00
    -16.656  0.0000E+00  0.0000E+00  0.0000E+00  0.0000E+00  0.0000E+00  0.0000E+00  0.0000E+00  0.0000E+00  0.0000E+00
    -16.582  0.0000E+00  0.0000E+00  0.0000E+00  0.0000E+00  0.0000E+00  0.0000E+00  0.0000E+00  0.0000E+00  0.0000E+00
    -16.509  0.5944E-15  0.2258E-18  0.3415E-19  0.1238E-18  0.3538E-18  0.3547E-18  0.1842E-21  0.3557E-18  0.1185E-21
    -16.435  0.7487E-09  0.3973E-12  0.6043E-13  0.2170E-12  0.4448E-12  0.4465E-12  0.4401E-15  0.4483E-12  0.2927E-15
    -16.361  0.1461E-04  0.1190E-07  0.1813E-08  0.6506E-08  0.8652E-08  0.8701E-08  0.1909E-10  0.8757E-08  0.1272E-10
    -16.287  0.5380E-02  0.8042E-05  0.1229E-05  0.4401E-05  0.3161E-05  0.3195E-05  0.2132E-07  0.3233E-05  0.1422E-07
    -16.214  0.6412E-01  0.2309E-03  0.3555E-04  0.1268E-03  0.3677E-04  0.3772E-04  0.1185E-05  0.3883E-04  0.7883E-06
    -16.140  0.7187E-01  0.8570E-03  0.1343E-03  0.4742E-03  0.3741E-04  0.4078E-04  0.9249E-05  0.4483E-04  0.6115E-05
    -16.066  0.4227E-01  0.1344E-02  0.2167E-03  0.7532E-03  0.1725E-04  0.2212E-04  0.2739E-04  0.2817E-04  0.1793E-04
    -15.993  0.3157E-01  0.1700E-02  0.2842E-03  0.9681E-03  0.9744E-05  0.1528E-04  0.5483E-04  0.2250E-04  0.3538E-04
    -15.919  0.2564E-01  0.2009E-02  0.3500E-03  0.1165E-02  0.5748E-05  0.1156E-04  0.9222E-04  0.1953E-04  0.5851E-04
    -15.845  0.2155E-01  0.2296E-02  0.4194E-03  0.1358E-02  0.3312E-05  0.9122E-05  0.1413E-03  0.1757E-04  0.8785E-04
    -15.772  0.1841E-01  0.2575E-02  0.4967E-03  0.1559E-02  0.1811E-05  0.7405E-05  0.2048E-03  0.1612E-04  0.1242E-03
    -15.698  0.1585E-01  0.2857E-02  0.5873E-03  0.1776E-02  0.9585E-06  0.6152E-05  0.2868E-03  0.1493E-04  0.1686E-03
    -15.624  0.1365E-01  0.3154E-02  0.6999E-03  0.2022E-02  0.5961E-06  0.5228E-05  0.3933E-03  0.1388E-04  0.2221E-03
    -15.551  0.1168E-01  0.3690E-02  0.1057E-02  0.2525E-02  0.6306E-06  0.4552E-05  0.5348E-03  0.1289E-04  0.2927E-03
    -15.477  0.9827E-02  0.9625E-02  0.7024E-02  0.8557E-02  0.1021E-05  0.4111E-05  0.7912E-03  0.1191E-04  0.7997E-03
    -15.403  0.7972E-02  0.1489E-01  0.1318E-01  0.1440E-01  0.1771E-05  0.3939E-05  0.1397E-02  0.1093E-04  0.3085E-02
    -15.330  0.5845E-02  0.1291E-01  0.1183E-01  0.1269E-01  0.3105E-05  0.4006E-05  0.2262E-02  0.8917E-05  0.5735E-02
    -15.256  0.3169E-02  0.2379E-01  0.2095E-01  0.2155E-01  0.9680E-05  0.8826E-05  0.4950E-02  0.5272E-05  0.8859E-02
    -15.182  0.3366E-02  0.2073E-01  0.1746E-01  0.1765E-01  0.2383E-04  0.2059E-04  0.1287E-01  0.9213E-05  0.1860E-01
    -15.109  0.2076E-01  0.1448E-01  0.2111E-01  0.1680E-01  0.3565E-04  0.3647E-04  0.3182E-01  0.8196E-04  0.7486E-01
    -15.035  0.1195E-01  0.3279E-02  0.1587E-01  0.8810E-02  0.1348E-04  0.2155E-04  0.1546E-01  0.6568E-04  0.5423E-01
    -14.961  0.3418E-03  0.6719E-04  0.9455E-03  0.3690E-03  0.3954E-06  0.1122E-05  0.4856E-03  0.2918E-05  0.2611E-02
    -14.888  0.3029E-06  0.7397E-07  0.1786E-05  0.4552E-06  0.3907E-09  0.2081E-08  0.4870E-06  0.4087E-08  0.4330E-05
    -14.814  0.5594E-11  0.2460E-11  0.6747E-10  0.1070E-10  0.7778E-14  0.7966E-13  0.9715E-11  0.1211E-12  0.1529E-09
    -14.740  0.1585E-17  0.1481E-17  0.4182E-16  0.4190E-17  0.2443E-20  0.4993E-19  0.3017E-17  0.6302E-19  0.9123E-16
    -14.666  0.0000E+00  0.0000E+00  0.0000E+00  0.0000E+00  0.0000E+00  0.0000E+00  0.0000E+00  0.0000E+00  0.0000E+00
    -14.593  0.0000E+00  0.0000E+00  0.0000E+00  0.0000E+00  0.0000E+00  0.0000E+00  0.0000E+00  0.0000E+00  0.0000E+00
    -14.519  0.0000E+00  0.0000E+00  0.0000E+00  0.0000E+00  0.0000E+00  0.0000E+00  0.0000E+00  0.0000E+00  0.0000E+00
    -14.445  0.0000E+00  0.0000E+00  0.0000E+00  0.0000E+00  0.0000E+00  0.0000E+00  0.0000E+00  0.0000E+00  0.0000E+00
    -14.372  0.0000E+00  0.0000E+00  0.0000E+00  0.0000E+00  0.0000E+00  0.0000E+00  0.0000E+00  0.0000E+00  0.0000E+00
    -14.298  0.0000E+00  0.0000E+00  0.0000E+00  0.0000E+00  0.0000E+00  0.0000E+00  0.0000E+00  0.0000E+00  0.0000E+00
    -14.224  0.0000E+00  0.0000E+00  0.0000E+00  0.0000E+00  0.0000E+00  0.0000E+00  0.0000E+00  0.0000E+00  0.0000E+00
    -14.151  0.0000E+00  0.0000E+00  0.0000E+00  0.0000E+00  0.0000E+00  0.0000E+00  0.0000E+00  0.0000E+00  0.0000E+00
    -14.077  0.0000E+00  0.0000E+00  0.0000E+00  0.0000E+00  0.0000E+00  0.0000E+00  0.0000E+00  0.0000E+00  0.0000E+00
    -14.003  0.0000E+00  0.0000E+00  0.0000E+00  0.0000E+00  0.0000E+00  0.0000E+00  0.0000E+00  0.0000E+00  0.0000E+00
    -13.930  0.0000E+00  0.0000E+00  0.0000E+00  0.0000E+00  0.0000E+00  0.0000E+00  0.0000E+00  0.0000E+00  0.0000E+00
    -13.856  0.0000E+00  0.0000E+00  0.0000E+00  0.0000E+00  0.0000E+00  0.0000E+00  0.0000E+00  0.0000E+00  0.0000E+00
    -13.782  0.0000E+00  0.0000E+00  0.0000E+00  0.0000E+00  0.0000E+00  0.0000E+00  0.0000E+00  0.0000E+00  0.0000E+00
    -13.709  0.0000E+00  0.0000E+00  0.0000E+00  0.0000E+00  0.0000E+00  0.0000E+00  0.0000E+00  0.0000E+00  0.0000E+00
    -13.635  0.0000E+00  0.0000E+00  0.0000E+00  0.0000E+00  0.0000E+00  0.0000E+00  0.0000E+00  0.0000E+00  0.0000E+00
    -13.561  0.0000E+00  0.0000E+00  0.0000E+00  0.0000E+00  0.0000E+00  0.0000E+00  0.0000E+00  0.0000E+00  0.0000E+00
    -13.488  0.0000E+00  0.0000E+00  0.0000E+00  0.0000E+00  0.0000E+00  0.0000E+00  0.0000E+00  0.0000E+00  0.0000E+00
    -13.414  0.0000E+00  0.0000E+00  0.0000E+00  0.0000E+00  0.0000E+00  0.0000E+00  0.0000E+00  0.0000E+00  0.0000E+00
    -13.340  0.0000E+00  0.0000E+00  0.0000E+00  0.0000E+00  0.0000E+00  0.0000E+00  0.0000E+00  0.0000E+00  0.0000E+00
    -13.267  0.0000E+00  0.0000E+00  0.0000E+00  0.0000E+00  0.0000E+00  0.0000E+00  0.0000E+00  0.0000E+00  0.0000E+00
    -13.193  0.0000E+00  0.0000E+00  0.0000E+00  0.0000E+00  0.0000E+00  0.0000E+00  0.0000E+00  0.0000E+00  0.0000E+00
    -13.119  0.0000E+00  0.0000E+00  0.0000E+00  0.0000E+00  0.0000E+00  0.0000E+00  0.0000E+00  0.0000E+00  0.0000E+00
    -13.045  0.0000E+00  0.0000E+00  0.0000E+00  0.0000E+00  0.0000E+00  0.0000E+00  0.0000E+00  0.0000E+00  0.0000E+00
    -12.972  0.0000E+00  0.0000E+00  0.0000E+00  0.0000E+00  0.0000E+00  0.0000E+00  0.0000E+00  0.0000E+00  0.0000E+00
    -12.898  0.0000E+00  0.0000E+00  0.0000E+00  0.0000E+00  0.0000E+00  0.0000E+00  0.0000E+00  0.0000E+00  0.0000E+00
    -12.824  0.0000E+00  0.0000E+00  0.0000E+00  0.0000E+00  0.0000E+00  0.0000E+00  0.0000E+00  0.0000E+00  0.0000E+00
    -12.751  0.0000E+00  0.0000E+00  0.0000E+00  0.0000E+00  0.0000E+00  0.0000E+00  0.0000E+00  0.0000E+00  0.0000E+00
    -12.677  0.0000E+00  0.0000E+00  0.0000E+00  0.0000E+00  0.0000E+00  0.0000E+00  0.0000E+00  0.0000E+00  0.0000E+00
    -12.603  0.0000E+00  0.0000E+00  0.0000E+00  0.0000E+00  0.0000E+00  0.0000E+00  0.0000E+00  0.0000E+00  0.0000E+00
    -12.530  0.0000E+00  0.0000E+00  0.0000E+00  0.0000E+00  0.0000E+00  0.0000E+00  0.0000E+00  0.0000E+00  0.0000E+00
    -12.456  0.0000E+00  0.0000E+00  0.0000E+00  0.0000E+00  0.0000E+00  0.0000E+00  0.0000E+00  0.0000E+00  0.0000E+00
    -12.382  0.0000E+00  0.0000E+00  0.0000E+00  0.0000E+00  0.0000E+00  0.0000E+00  0.0000E+00  0.0000E+00  0.0000E+00
    -12.309  0.0000E+00  0.0000E+00  0.0000E+00  0.0000E+00  0.0000E+00  0.0000E+00  0.0000E+00  0.0000E+00  0.0000E+00
    -12.235  0.0000E+00  0.0000E+00  0.0000E+00  0.0000E+00  0.0000E+00  0.0000E+00  0.0000E+00  0.0000E+00  0.0000E+00
    -12.161  0.0000E+00  0.0000E+00  0.0000E+00  0.0000E+00  0.0000E+00  0.0000E+00  0.0000E+00  0.0000E+00  0.0000E+00
    -12.088  0.0000E+00  0.0000E+00  0.0000E+00  0.0000E+00  0.0000E+00  0.0000E+00  0.0000E+00  0.0000E+00  0.0000E+00
    -12.014  0.0000E+00  0.0000E+00  0.0000E+00  0.0000E+00  0.0000E+00  0.0000E+00  0.0000E+00  0.0000E+00  0.0000E+00
    -11.940  0.0000E+00  0.0000E+00  0.0000E+00  0.0000E+00  0.0000E+00  0.0000E+00  0.0000E+00  0.0000E+00  0.0000E+00
    -11.867  0.0000E+00  0.0000E+00  0.0000E+00  0.0000E+00  0.0000E+00  0.0000E+00  0.0000E+00  0.0000E+00  0.0000E+00
    -11.793  0.0000E+00  0.0000E+00  0.0000E+00  0.0000E+00  0.0000E+00  0.0000E+00  0.0000E+00  0.0000E+00  0.0000E+00
    -11.719  0.0000E+00  0.0000E+00  0.0000E+00  0.0000E+00  0.0000E+00  0.0000E+00  0.0000E+00  0.0000E+00  0.0000E+00
    -11.645  0.0000E+00  0.0000E+00  0.0000E+00  0.0000E+00  0.0000E+00  0.0000E+00  0.0000E+00  0.0000E+00  0.0000E+00
    -11.572  0.0000E+00  0.0000E+00  0.0000E+00  0.0000E+00  0.0000E+00  0.0000E+00  0.0000E+00  0.0000E+00  0.0000E+00
    -11.498  0.0000E+00  0.0000E+00  0.0000E+00  0.0000E+00  0.0000E+00  0.0000E+00  0.0000E+00  0.0000E+00  0.0000E+00
    -11.424  0.0000E+00  0.0000E+00  0.0000E+00  0.0000E+00  0.0000E+00  0.0000E+00  0.0000E+00  0.0000E+00  0.0000E+00
    -11.351  0.0000E+00  0.0000E+00  0.0000E+00  0.0000E+00  0.0000E+00  0.0000E+00  0.0000E+00  0.0000E+00  0.0000E+00
    -11.277  0.0000E+00  0.0000E+00  0.0000E+00  0.0000E+00  0.0000E+00  0.0000E+00  0.0000E+00  0.0000E+00  0.0000E+00
    -11.203  0.0000E+00  0.0000E+00  0.0000E+00  0.0000E+00  0.0000E+00  0.0000E+00  0.0000E+00  0.0000E+00  0.0000E+00
    -11.130  0.0000E+00  0.0000E+00  0.0000E+00  0.0000E+00  0.0000E+00  0.0000E+00  0.0000E+00  0.0000E+00  0.0000E+00
    -11.056  0.0000E+00  0.0000E+00  0.0000E+00  0.0000E+00  0.0000E+00  0.0000E+00  0.0000E+00  0.0000E+00  0.0000E+00
    -10.982  0.0000E+00  0.0000E+00  0.0000E+00  0.0000E+00  0.0000E+00  0.0000E+00  0.0000E+00  0.0000E+00  0.0000E+00
    -10.909  0.0000E+00  0.0000E+00  0.0000E+00  0.0000E+00  0.0000E+00  0.0000E+00  0.0000E+00  0.0000E+00  0.0000E+00
    -10.835  0.0000E+00  0.0000E+00  0.0000E+00  0.0000E+00  0.0000E+00  0.0000E+00  0.0000E+00  0.0000E+00  0.0000E+00
    -10.761  0.0000E+00  0.0000E+00  0.0000E+00  0.0000E+00  0.0000E+00  0.0000E+00  0.0000E+00  0.0000E+00  0.0000E+00
    -10.688  0.0000E+00  0.0000E+00  0.0000E+00  0.0000E+00  0.0000E+00  0.0000E+00  0.0000E+00  0.0000E+00  0.0000E+00
    -10.614  0.0000E+00  0.0000E+00  0.0000E+00  0.0000E+00  0.0000E+00  0.0000E+00  0.0000E+00  0.0000E+00  0.0000E+00
    -10.540  0.0000E+00  0.0000E+00  0.0000E+00  0.0000E+00  0.0000E+00  0.0000E+00  0.0000E+00  0.0000E+00  0.0000E+00
    -10.467  0.0000E+00  0.0000E+00  0.0000E+00  0.0000E+00  0.0000E+00  0.0000E+00  0.0000E+00  0.0000E+00  0.0000E+00
    -10.393  0.0000E+00  0.0000E+00  0.0000E+00  0.0000E+00  0.0000E+00  0.0000E+00  0.0000E+00  0.0000E+00  0.0000E+00
    -10.319  0.0000E+00  0.0000E+00  0.0000E+00  0.0000E+00  0.0000E+00  0.0000E+00  0.0000E+00  0.0000E+00  0.0000E+00
    -10.246  0.0000E+00  0.0000E+00  0.0000E+00  0.0000E+00  0.0000E+00  0.0000E+00  0.0000E+00  0.0000E+00  0.0000E+00
    -10.172  0.0000E+00  0.0000E+00  0.0000E+00  0.0000E+00  0.0000E+00  0.0000E+00  0.0000E+00  0.0000E+00  0.0000E+00
    -10.098  0.0000E+00  0.0000E+00  0.0000E+00  0.0000E+00  0.0000E+00  0.0000E+00  0.0000E+00  0.0000E+00  0.0000E+00
    -10.024  0.0000E+00  0.0000E+00  0.0000E+00  0.0000E+00  0.0000E+00  0.0000E+00  0.0000E+00  0.0000E+00  0.0000E+00
     -9.951  0.0000E+00  0.0000E+00  0.0000E+00  0.0000E+00  0.0000E+00  0.0000E+00  0.0000E+00  0.0000E+00  0.0000E+00
     -9.877  0.0000E+00  0.0000E+00  0.0000E+00  0.0000E+00  0.0000E+00  0.0000E+00  0.0000E+00  0.0000E+00  0.0000E+00
     -9.803  0.0000E+00  0.0000E+00  0.0000E+00  0.0000E+00  0.0000E+00  0.0000E+00  0.0000E+00  0.0000E+00  0.0000E+00
     -9.730  0.0000E+00  0.0000E+00  0.0000E+00  0.0000E+00  0.0000E+00  0.0000E+00  0.0000E+00  0.0000E+00  0.0000E+00
     -9.656  0.0000E+00  0.0000E+00  0.0000E+00  0.0000E+00  0.0000E+00  0.0000E+00  0.0000E+00  0.0000E+00  0.0000E+00
     -9.582  0.0000E+00  0.0000E+00  0.0000E+00  0.0000E+00  0.0000E+00  0.0000E+00  0.0000E+00  0.0000E+00  0.0000E+00
     -9.509  0.0000E+00  0.0000E+00  0.0000E+00  0.0000E+00  0.0000E+00  0.0000E+00  0.0000E+00  0.0000E+00  0.0000E+00
     -9.435  0.0000E+00  0.0000E+00  0.0000E+00  0.0000E+00  0.0000E+00  0.0000E+00  0.0000E+00  0.0000E+00  0.0000E+00
     -9.361  0.0000E+00  0.0000E+00  0.0000E+00  0.0000E+00  0.0000E+00  0.0000E+00  0.0000E+00  0.0000E+00  0.0000E+00
     -9.288  0.0000E+00  0.0000E+00  0.0000E+00  0.0000E+00  0.0000E+00  0.0000E+00  0.0000E+00  0.0000E+00  0.0000E+00
     -9.214  0.0000E+00  0.0000E+00  0.0000E+00  0.0000E+00  0.0000E+00  0.0000E+00  0.0000E+00  0.0000E+00  0.0000E+00
     -9.140  0.0000E+00  0.0000E+00  0.0000E+00  0.0000E+00  0.0000E+00  0.0000E+00  0.0000E+00  0.0000E+00  0.0000E+00
     -9.067  0.0000E+00  0.0000E+00  0.0000E+00  0.0000E+00  0.0000E+00  0.0000E+00  0.0000E+00  0.0000E+00  0.0000E+00
     -8.993  0.0000E+00  0.0000E+00  0.0000E+00  0.0000E+00  0.0000E+00  0.0000E+00  0.0000E+00  0.0000E+00  0.0000E+00
     -8.919  0.0000E+00  0.0000E+00  0.0000E+00  0.0000E+00  0.0000E+00  0.0000E+00  0.0000E+00  0.0000E+00  0.0000E+00
     -8.846  0.0000E+00  0.0000E+00  0.0000E+00  0.0000E+00  0.0000E+00  0.0000E+00  0.0000E+00  0.0000E+00  0.0000E+00
     -8.772  0.0000E+00  0.0000E+00  0.0000E+00  0.0000E+00  0.0000E+00  0.0000E+00  0.0000E+00  0.0000E+00  0.0000E+00
     -8.698  0.0000E+00  0.0000E+00  0.0000E+00  0.0000E+00  0.0000E+00  0.0000E+00  0.0000E+00  0.0000E+00  0.0000E+00
     -8.625  0.0000E+00  0.0000E+00  0.0000E+00  0.0000E+00  0.0000E+00  0.0000E+00  0.0000E+00  0.0000E+00  0.0000E+00
     -8.551  0.0000E+00  0.0000E+00  0.0000E+00  0.0000E+00  0.0000E+00  0.0000E+00  0.0000E+00  0.0000E+00  0.0000E+00
     -8.477  0.0000E+00  0.0000E+00  0.0000E+00  0.0000E+00  0.0000E+00  0.0000E+00  0.0000E+00  0.0000E+00  0.0000E+00
     -8.403  0.0000E+00  0.0000E+00  0.0000E+00  0.0000E+00  0.0000E+00  0.0000E+00  0.0000E+00  0.0000E+00  0.0000E+00
     -8.330  0.0000E+00  0.0000E+00  0.0000E+00  0.0000E+00  0.0000E+00  0.0000E+00  0.0000E+00  0.0000E+00  0.0000E+00
     -8.256  0.0000E+00  0.0000E+00  0.0000E+00  0.0000E+00  0.0000E+00  0.0000E+00  0.0000E+00  0.0000E+00  0.0000E+00
     -8.182  0.5967E-17  0.4198E-27  0.2044E-21  0.2044E-21  0.3953E-18  0.3953E-18  0.2645E-19  0.6016E-18  0.7936E-19
     -8.109  0.3587E-10  0.9143E-15  0.2989E-14  0.2989E-14  0.2376E-11  0.2376E-11  0.1590E-12  0.3612E-11  0.4771E-12
     -8.035  0.2870E-05  0.1071E-09  0.3503E-09  0.3503E-09  0.1901E-06  0.1901E-06  0.1273E-07  0.2887E-06  0.3818E-07
     -7.961  0.3965E-02  0.2503E-06  0.8202E-06  0.8202E-06  0.2626E-03  0.2626E-03  0.1760E-04  0.3978E-03  0.5281E-04
     -7.888  0.1398E+00  0.1878E-04  0.6175E-04  0.6175E-04  0.9251E-02  0.9252E-02  0.6223E-03  0.1392E-01  0.1867E-02
     -7.814  0.3090E+00  0.1180E-03  0.3909E-03  0.3909E-03  0.2037E-01  0.2037E-01  0.1387E-02  0.2992E-01  0.4162E-02
     -7.740  0.1979E+00  0.2091E-03  0.7032E-03  0.7032E-03  0.1285E-01  0.1285E-01  0.9095E-03  0.1743E-01  0.2729E-02
     -7.667  0.1530E+00  0.2539E-03  0.8675E-03  0.8675E-03  0.9641E-02  0.9641E-02  0.7122E-03  0.1175E-01  0.2137E-02
     -7.593  0.1378E+00  0.2752E-03  0.9492E-03  0.9492E-03  0.8246E-02  0.8247E-02  0.6281E-03  0.8884E-02  0.1884E-02
     -7.519  0.1376E+00  0.2849E-03  0.9526E-03  0.9582E-03  0.7564E-02  0.7461E-02  0.6122E-03  0.6847E-02  0.1701E-02
     -7.446  0.2327E+00  0.5598E-03  0.8360E-03  0.1128E-02  0.1282E-01  0.7288E-02  0.2894E-02  0.5347E-02  0.1453E-02
     -7.372  0.4468E+00  0.9711E-03  0.4487E-03  0.1180E-02  0.2226E-01  0.7498E-02  0.7033E-02  0.5761E-02  0.8097E-03
     -7.298  0.2128E+00  0.5051E-03  0.5776E-04  0.3515E-03  0.1417E-01  0.7834E-02  0.4156E-02  0.1008E-01  0.1043E-03
     -7.225  0.2604E+00  0.7290E-03  0.6248E-04  0.3990E-03  0.3687E-01  0.3413E-01  0.3055E-02  0.3863E-01  0.1882E-05
     -7.151  0.2417E+00  0.1530E-02  0.1793E-03  0.8377E-03  0.2973E-01  0.2958E-01  0.2628E-02  0.3689E-01  0.2998E-05
     -7.077  0.2103E+00  0.1490E-01  0.4564E-03  0.1450E-02  0.1744E-01  0.1998E-01  0.2412E-02  0.3159E-01  0.8428E-04
     -7.004  0.2638E+00  0.1353E+00  0.2181E-02  0.3814E-02  0.1245E-01  0.1986E-01  0.4122E-02  0.3994E-01  0.1999E-02
     -6.930  0.1960E+00  0.1450E+00  0.1722E-02  0.3435E-02  0.8771E-02  0.1826E-01  0.8671E-02  0.2703E-01  0.7176E-02
     -6.856  0.1924E-01  0.9345E-01  0.8905E-03  0.1897E-02  0.9482E-02  0.1235E-01  0.1293E-01  0.3870E-02  0.1204E-01
     -6.782  0.1736E-02  0.9951E-01  0.8993E-02  0.2056E-01  0.1760E-01  0.4459E-01  0.2162E-01  0.2818E-01  0.2254E-01
     -6.709  0.2511E-02  0.1109E+00  0.3068E-01  0.4312E-01  0.4639E-01  0.8370E-01  0.4513E-01  0.6292E-01  0.5332E-01
     -6.635  0.6309E-02  0.5389E-01  0.2485E-01  0.3658E-01  0.3466E-01  0.4433E-01  0.3424E-01  0.5621E-01  0.5070E-01
     -6.561  0.8935E-02  0.2385E-01  0.1040E-01  0.2069E-01  0.1204E-01  0.1783E-01  0.1717E-01  0.3557E-01  0.3879E-01
     -6.488  0.1009E-01  0.1874E-01  0.8004E-02  0.1656E-01  0.8729E-02  0.1532E-01  0.1551E-01  0.3082E-01  0.3987E-01
     -6.414  0.1083E-01  0.1574E-01  0.7049E-02  0.1469E-01  0.7064E-02  0.1413E-01  0.1545E-01  0.2919E-01  0.4293E-01
     -6.340  0.1126E-01  0.1378E-01  0.6502E-02  0.1359E-01  0.5825E-02  0.1331E-01  0.1606E-01  0.2863E-01  0.4736E-01
     -6.267  0.1139E-01  0.1246E-01  0.6162E-02  0.1294E-01  0.4851E-02  0.1277E-01  0.1713E-01  0.2868E-01  0.5302E-01
     -6.193  0.1127E-01  0.1160E-01  0.5943E-02  0.1261E-01  0.4082E-02  0.1249E-01  0.1853E-01  0.2918E-01  0.5992E-01
     -6.119  0.1098E-01  0.1112E-01  0.5807E-02  0.1263E-01  0.3526E-02  0.1249E-01  0.2003E-01  0.3015E-01  0.6803E-01
     -6.046  0.1057E-01  0.1122E-01  0.5736E-02  0.1323E-01  0.3403E-02  0.1303E-01  0.2116E-01  0.3180E-01  0.7736E-01
     -5.972  0.1028E-01  0.1429E-01  0.6885E-02  0.1691E-01  0.6040E-02  0.1569E-01  0.2064E-01  0.3572E-01  0.8807E-01
     -5.898  0.1039E-01  0.3639E-01  0.2957E-01  0.4308E-01  0.2427E-01  0.2503E-01  0.2563E-01  0.4540E-01  0.1091E+00
     -5.825  0.9716E-02  0.3670E-01  0.4910E-01  0.5281E-01  0.5156E-01  0.4291E-01  0.6948E-01  0.5678E-01  0.2050E+00
     -5.751  0.9889E-02  0.1877E-01  0.3844E-01  0.3594E-01  0.5057E-01  0.4498E-01  0.9996E-01  0.5932E-01  0.2583E+00