   3   3   1   0
  0.1126013E+03  0.3950000E-09  0.3950000E-09  0.2500000E-08  0.5000000E-15
  1.000000000000000E-004
  CAR 
 NiI2                                    
      5.84612636    -17.31950746  301     -3.02920710      1.00000000
    -17.320  0.0000E+00  0.0000E+00  0.0000E+00  0.0000E+00
    -17.242  0.0000E+00  0.0000E+00  0.0000E+00  0.0000E+00
    -17.165  0.0000E+00  0.0000E+00  0.0000E+00  0.0000E+00
    -17.088  0.0000E+00  0.0000E+00  0.0000E+00  0.0000E+00
    -17.011  0.0000E+00  0.0000E+00  0.0000E+00  0.0000E+00
    -16.933  0.0000E+00  0.0000E+00  0.0000E+00  0.0000E+00
    -16.856  0.0000E+00  0.0000E+00  0.0000E+00  0.0000E+00
    -16.779  0.0000E+00  0.0000E+00  0.0000E+00  0.0000E+00
    -16.702  0.0000E+00  0.0000E+00  0.0000E+00  0.0000E+00
    -16.625  0.0000E+00  0.0000E+00  0.0000E+00  0.0000E+00
    -16.547  0.4553E-15  0.0000E+00  0.3516E-16  0.0000E+00
    -16.470  0.2159E-08  0.0000E+00  0.1667E-09  0.0000E+00
    -16.393  0.1054E-03  0.0000E+00  0.8137E-05  0.0000E+00
    -16.316  0.6434E-01  0.9246E-10  0.4977E-02  0.7140E-11
    -16.238  0.9058E+00  0.1290E-04  0.7492E-01  0.9963E-06
    -16.161  0.1039E+01  0.2100E-01  0.1551E+00  0.1623E-02
    -16.084  0.6549E+00  0.6457E+00  0.2057E+00  0.5149E-01
    -16.007  0.5324E+00  0.1145E+01  0.2468E+00  0.1399E+00
    -15.930  0.4725E+00  0.7023E+00  0.2833E+00  0.1942E+00
    -15.852  0.4381E+00  0.5477E+00  0.3171E+00  0.2365E+00
    -15.775  0.4183E+00  0.4782E+00  0.3494E+00  0.2734E+00
    -15.698  0.4090E+00  0.4385E+00  0.3810E+00  0.3072E+00
    -15.621  0.4088E+00  0.4148E+00  0.4126E+00  0.3393E+00
    -15.543  0.4320E+00  0.4017E+00  0.4459E+00  0.3703E+00
    -15.466  0.1121E+01  0.3973E+00  0.5325E+00  0.4010E+00
    -15.389  0.2185E+01  0.4022E+00  0.7012E+00  0.4320E+00
    -15.312  0.2093E+01  0.5901E+00  0.8628E+00  0.4776E+00
    -15.235  0.3500E+01  0.1842E+01  0.1133E+01  0.6199E+00
    -15.157  0.5377E+01  0.1882E+01  0.1548E+01  0.7652E+00
    -15.080  0.5310E+01  0.2682E+01  0.1958E+01  0.9723E+00
    -15.003  0.5378E+00  0.2941E+01  0.2000E+01  0.1199E+01
    -14.926  0.1942E-02  0.4135E+01  0.2000E+01  0.1519E+01
    -14.849  0.1167E-06  0.5525E+01  0.2000E+01  0.1945E+01
    -14.771  0.8331E-13  0.7057E+00  0.2000E+01  0.2000E+01
    -14.694  0.0000E+00  0.3181E-02  0.2000E+01  0.2000E+01
    -14.617  0.0000E+00  0.2560E-06  0.2000E+01  0.2000E+01
    -14.540  0.0000E+00  0.2555E-12  0.2000E+01  0.2000E+01
    -14.462  0.0000E+00  0.0000E+00  0.2000E+01  0.2000E+01
    -14.385  0.0000E+00  0.0000E+00  0.2000E+01  0.2000E+01
    -14.308  0.0000E+00  0.0000E+00  0.2000E+01  0.2000E+01
    -14.231  0.0000E+00  0.0000E+00  0.2000E+01  0.2000E+01
    -14.154  0.0000E+00  0.0000E+00  0.2000E+01  0.2000E+01
    -14.076  0.0000E+00  0.0000E+00  0.2000E+01  0.2000E+01
    -13.999  0.0000E+00  0.0000E+00  0.2000E+01  0.2000E+01
    -13.922  0.0000E+00  0.0000E+00  0.2000E+01  0.2000E+01
    -13.845  0.0000E+00  0.0000E+00  0.2000E+01  0.2000E+01
    -13.767  0.0000E+00  0.0000E+00  0.2000E+01  0.2000E+01
    -13.690  0.0000E+00  0.0000E+00  0.2000E+01  0.2000E+01
    -13.613  0.0000E+00  0.0000E+00  0.2000E+01  0.2000E+01
    -13.536  0.0000E+00  0.0000E+00  0.2000E+01  0.2000E+01
    -13.459  0.0000E+00  0.0000E+00  0.2000E+01  0.2000E+01
    -13.381  0.0000E+00  0.0000E+00  0.2000E+01  0.2000E+01
    -13.304  0.0000E+00  0.0000E+00  0.2000E+01  0.2000E+01
    -13.227  0.0000E+00  0.0000E+00  0.2000E+01  0.2000E+01
    -13.150  0.0000E+00  0.0000E+00  0.2000E+01  0.2000E+01
    -13.072  0.0000E+00  0.0000E+00  0.2000E+01  0.2000E+01
    -12.995  0.0000E+00  0.0000E+00  0.2000E+01  0.2000E+01
    -12.918  0.0000E+00  0.0000E+00  0.2000E+01  0.2000E+01
    -12.841  0.0000E+00  0.0000E+00  0.2000E+01  0.2000E+01
    -12.764  0.0000E+00  0.0000E+00  0.2000E+01  0.2000E+01
    -12.686  0.0000E+00  0.0000E+00  0.2000E+01  0.2000E+01
    -12.609  0.0000E+00  0.0000E+00  0.2000E+01  0.2000E+01
    -12.532  0.0000E+00  0.0000E+00  0.2000E+01  0.2000E+01
    -12.455  0.0000E+00  0.0000E+00  0.2000E+01  0.2000E+01
    -12.378  0.0000E+00  0.0000E+00  0.2000E+01  0.2000E+01
    -12.300  0.0000E+00  0.0000E+00  0.2000E+01  0.2000E+01
    -12.223  0.0000E+00  0.0000E+00  0.2000E+01  0.2000E+01
    -12.146  0.0000E+00  0.0000E+00  0.2000E+01  0.2000E+01
    -12.069  0.0000E+00  0.0000E+00  0.2000E+01  0.2000E+01
    -11.991  0.0000E+00  0.0000E+00  0.2000E+01  0.2000E+01
    -11.914  0.0000E+00  0.0000E+00  0.2000E+01  0.2000E+01
    -11.837  0.0000E+00  0.0000E+00  0.2000E+01  0.2000E+01
    -11.760  0.0000E+00  0.0000E+00  0.2000E+01  0.2000E+01
    -11.683  0.0000E+00  0.0000E+00  0.2000E+01  0.2000E+01
    -11.605  0.0000E+00  0.0000E+00  0.2000E+01  0.2000E+01
    -11.528  0.0000E+00  0.0000E+00  0.2000E+01  0.2000E+01
    -11.451  0.0000E+00  0.0000E+00  0.2000E+01  0.2000E+01
    -11.374  0.0000E+00  0.0000E+00  0.2000E+01  0.2000E+01
    -11.296  0.0000E+00  0.0000E+00  0.2000E+01  0.2000E+01
    -11.219  0.0000E+00  0.0000E+00  0.2000E+01  0.2000E+01
    -11.142  0.0000E+00  0.0000E+00  0.2000E+01  0.2000E+01
    -11.065  0.0000E+00  0.0000E+00  0.2000E+01  0.2000E+01
    -10.988  0.0000E+00  0.0000E+00  0.2000E+01  0.2000E+01
    -10.910  0.0000E+00  0.0000E+00  0.2000E+01  0.2000E+01
    -10.833  0.0000E+00  0.0000E+00  0.2000E+01  0.2000E+01
    -10.756  0.0000E+00  0.0000E+00  0.2000E+01  0.2000E+01
    -10.679  0.0000E+00  0.0000E+00  0.2000E+01  0.2000E+01
    -10.601  0.0000E+00  0.0000E+00  0.2000E+01  0.2000E+01
    -10.524  0.0000E+00  0.0000E+00  0.2000E+01  0.2000E+01
    -10.447  0.0000E+00  0.0000E+00  0.2000E+01  0.2000E+01
    -10.370  0.0000E+00  0.0000E+00  0.2000E+01  0.2000E+01
    -10.293  0.0000E+00  0.0000E+00  0.2000E+01  0.2000E+01
    -10.215  0.0000E+00  0.0000E+00  0.2000E+01  0.2000E+01
    -10.138  0.0000E+00  0.0000E+00  0.2000E+01  0.2000E+01
    -10.061  0.0000E+00  0.0000E+00  0.2000E+01  0.2000E+01
     -9.984  0.0000E+00  0.0000E+00  0.2000E+01  0.2000E+01
     -9.907  0.0000E+00  0.0000E+00  0.2000E+01  0.2000E+01
     -9.829  0.0000E+00  0.0000E+00  0.2000E+01  0.2000E+01
     -9.752  0.0000E+00  0.0000E+00  0.2000E+01  0.2000E+01
     -9.675  0.0000E+00  0.0000E+00  0.2000E+01  0.2000E+01
     -9.598  0.0000E+00  0.0000E+00  0.2000E+01  0.2000E+01
     -9.520  0.0000E+00  0.0000E+00  0.2000E+01  0.2000E+01
     -9.443  0.0000E+00  0.0000E+00  0.2000E+01  0.2000E+01
     -9.366  0.0000E+00  0.0000E+00  0.2000E+01  0.2000E+01
     -9.289  0.0000E+00  0.0000E+00  0.2000E+01  0.2000E+01
     -9.212  0.0000E+00  0.0000E+00  0.2000E+01  0.2000E+01
     -9.134  0.0000E+00  0.0000E+00  0.2000E+01  0.2000E+01
     -9.057  0.0000E+00  0.0000E+00  0.2000E+01  0.2000E+01
     -8.980  0.0000E+00  0.0000E+00  0.2000E+01  0.2000E+01
     -8.903  0.0000E+00  0.0000E+00  0.2000E+01  0.2000E+01
     -8.825  0.0000E+00  0.0000E+00  0.2000E+01  0.2000E+01
     -8.748  0.0000E+00  0.0000E+00  0.2000E+01  0.2000E+01
     -8.671  0.0000E+00  0.0000E+00  0.2000E+01  0.2000E+01
     -8.594  0.1366E-12  0.0000E+00  0.2000E+01  0.2000E+01
     -8.517  0.2085E-06  0.0000E+00  0.2000E+01  0.2000E+01
     -8.439  0.3972E-02  0.0000E+00  0.2000E+01  0.2000E+01
     -8.362  0.1209E+01  0.0000E+00  0.2094E+01  0.2000E+01
     -8.285  0.1111E+02  0.9046E-15  0.2952E+01  0.2000E+01
     -8.208  0.8509E+01  0.3663E-08  0.3609E+01  0.2000E+01
     -8.130  0.3698E+01  0.1522E-03  0.3894E+01  0.2000E+01
     -8.053  0.1405E+01  0.8018E-01  0.4003E+01  0.2006E+01
     -7.976  0.1362E+01  0.1008E+01  0.4108E+01  0.2084E+01
     -7.899  0.1991E+01  0.1092E+01  0.4262E+01  0.2168E+01
     -7.822  0.1992E+01  0.6919E+00  0.4416E+01  0.2222E+01
     -7.744  0.1676E+01  0.5647E+00  0.4545E+01  0.2265E+01
     -7.667  0.1835E+01  0.5062E+00  0.4687E+01  0.2305E+01
     -7.590  0.1971E+01  0.4876E+00  0.4839E+01  0.2342E+01
     -7.513  0.1830E+01  0.8365E+00  0.4981E+01  0.2407E+01
     -7.436  0.1754E+01  0.2384E+01  0.5116E+01  0.2591E+01
     -7.358  0.2434E+01  0.1592E+01  0.5304E+01  0.2714E+01
     -7.281  0.2896E+01  0.9542E+00  0.5528E+01  0.2787E+01
     -7.204  0.4182E+01  0.9096E+00  0.5850E+01  0.2858E+01
     -7.127  0.6617E+01  0.1049E+01  0.6361E+01  0.2939E+01
     -7.049  0.6443E+01  0.1089E+01  0.6859E+01  0.3023E+01
     -6.972  0.2188E+01  0.1939E+01  0.7028E+01  0.3173E+01
     -6.895  0.1869E+01  0.4458E+01  0.7172E+01  0.3517E+01
     -6.818  0.2543E+01  0.2043E+01  0.7369E+01  0.3675E+01
     -6.741  0.2501E+01  0.1337E+01  0.7562E+01  0.3778E+01
     -6.663  0.2895E+01  0.1053E+01  0.7785E+01  0.3859E+01
     -6.586  0.2192E+01  0.7721E+00  0.7955E+01  0.3919E+01
     -6.509  0.1237E+01  0.9513E+00  0.8050E+01  0.3992E+01
     -6.432  0.1592E+01  0.1676E+01  0.8173E+01  0.4122E+01
     -6.354  0.2024E+01  0.1875E+01  0.8329E+01  0.4266E+01
     -6.277  0.8782E+00  0.3368E+01  0.8397E+01  0.4526E+01
     -6.200  0.9184E+00  0.3935E+01  0.8468E+01  0.4830E+01
     -6.123  0.6931E+00  0.2344E+01  0.8522E+01  0.5011E+01
     -6.046  0.9533E+00  0.2372E+01  0.8595E+01  0.5194E+01
     -5.968  0.1792E+01  0.3988E+01  0.8734E+01  0.5502E+01
     -5.891  0.1375E+01  0.4243E+01  0.8840E+01  0.5830E+01
     -5.814  0.1066E+01  0.4131E+01  0.8922E+01  0.6149E+01
     -5.737  0.9571E+00  0.3538E+01  0.8996E+01  0.6422E+01
     -5.659  0.9006E+00  0.2046E+01  0.9066E+01  0.6580E+01
     -5.582  0.8664E+00  0.1486E+01  0.9133E+01  0.6695E+01
     -5.505  0.8661E+00  0.1543E+01  0.9199E+01  0.6814E+01
     -5.428  0.8927E+00  0.2310E+01  0.9268E+01  0.6993E+01
     -5.351  0.1128E+01  0.1857E+01  0.9355E+01  0.7136E+01
     -5.273  0.2881E+01  0.1455E+01  0.9578E+01  0.7248E+01
     -5.196  0.1719E+01  0.1392E+01  0.9711E+01  0.7356E+01
     -5.119  0.8987E+00  0.3243E+01  0.9780E+01  0.7606E+01
     -5.042  0.1305E+01  0.3866E+01  0.9881E+01  0.7905E+01
     -4.965  0.9344E+00  0.3984E+01  0.9953E+01  0.8212E+01
     -4.887  0.6914E+00  0.4960E+01  0.1001E+02  0.8595E+01
     -4.810  0.6405E+00  0.3875E+01  0.1006E+02  0.8895E+01
     -4.733  0.5782E+00  0.4869E+01  0.1010E+02  0.9270E+01
     -4.656  0.5876E+00  0.4502E+01  0.1015E+02  0.9618E+01
     -4.578  0.5938E+00  0.2210E+01  0.1019E+02  0.9789E+01
     -4.501  0.1110E+01  0.1029E+01  0.1028E+02  0.9868E+01
     -4.424  0.2037E+01  0.9447E+00  0.1043E+02  0.9941E+01
     -4.347  0.1437E+01  0.1010E+01  0.1055E+02  0.1002E+02
     -4.270  0.1701E+01  0.1537E+01  0.1068E+02  0.1014E+02
     -4.192  0.2351E+01  0.1635E+01  0.1086E+02  0.1026E+02
     -4.115  0.2324E+01  0.1995E+01  0.1104E+02  0.1042E+02
     -4.038  0.2053E+01  0.1493E+01  0.1120E+02  0.1053E+02
     -3.961  0.2124E+01  0.5478E+00  0.1136E+02  0.1058E+02
     -3.883  0.3555E+01  0.4627E+00  0.1164E+02  0.1061E+02
     -3.806  0.3214E+01  0.4669E+00  0.1188E+02  0.1065E+02
     -3.729  0.2177E+01  0.4994E+00  0.1205E+02  0.1069E+02
     -3.652  0.1932E+01  0.5289E+00  0.1220E+02  0.1073E+02
     -3.575  0.2030E+01  0.5912E+00  0.1236E+02  0.1077E+02
     -3.497  0.1910E+01  0.7385E+00  0.1250E+02  0.1083E+02
     -3.420  0.1396E+01  0.1223E+01  0.1261E+02  0.1092E+02
     -3.343  0.1188E+01  0.9349E+00  0.1270E+02  0.1100E+02
     -3.266  0.1875E+01  0.4914E-01  0.1285E+02  0.1100E+02
     -3.188  0.1830E+01  0.5367E-04  0.1299E+02  0.1100E+02
     -3.111  0.1220E+00  0.7052E-09  0.1300E+02  0.1100E+02
     -3.034  0.1683E-03  0.1078E-15  0.1300E+02  0.1100E+02
     -2.957  0.2810E-08  0.0000E+00  0.1300E+02  0.1100E+02
     -2.880  0.4673E-15  0.0000E+00  0.1300E+02  0.1100E+02
     -2.802  0.0000E+00  0.0000E+00  0.1300E+02  0.1100E+02
     -2.725  0.0000E+00  0.0000E+00  0.1300E+02  0.1100E+02
     -2.648  0.0000E+00  0.0000E+00  0.1300E+02  0.1100E+02
     -2.571  0.0000E+00  0.0000E+00  0.1300E+02  0.1100E+02
     -2.494  0.0000E+00  0.0000E+00  0.1300E+02  0.1100E+02
     -2.416  0.0000E+00  0.3774E-15  0.1300E+02  0.1100E+02
     -2.339  0.0000E+00  0.1766E-08  0.1300E+02  0.1100E+02
     -2.262  0.0000E+00  0.8354E-04  0.1300E+02  0.1100E+02
     -2.185  0.0000E+00  0.5132E-01  0.1300E+02  0.1100E+02
     -2.107  0.0000E+00  0.8922E+00  0.1300E+02  0.1107E+02
     -2.030  0.0000E+00  0.2349E+01  0.1300E+02  0.1125E+02
     -1.953  0.0000E+00  0.3314E+01  0.1300E+02  0.1151E+02
     -1.876  0.0000E+00  0.3300E+01  0.1300E+02  0.1176E+02
     -1.799  0.0000E+00  0.3752E+01  0.1300E+02  0.1205E+02
     -1.721  0.0000E+00  0.4602E+01  0.1300E+02  0.1241E+02
     -1.644  0.0000E+00  0.3305E+01  0.1300E+02  0.1267E+02
     -1.567  0.0000E+00  0.2831E+01  0.1300E+02  0.1288E+02
     -1.490  0.0000E+00  0.1448E+01  0.1300E+02  0.1300E+02
     -1.412  0.0000E+00  0.5491E-01  0.1300E+02  0.1300E+02
     -1.335  0.0000E+00  0.4148E-04  0.1300E+02  0.1300E+02
     -1.258  0.0000E+00  0.3706E-09  0.1300E+02  0.1300E+02
     -1.181  0.0000E+00  0.0000E+00  0.1300E+02  0.1300E+02
     -1.104  0.0000E+00  0.0000E+00  0.1300E+02  0.1300E+02
     -1.026  0.0000E+00  0.0000E+00  0.1300E+02  0.1300E+02
     -0.949  0.0000E+00  0.0000E+00  0.1300E+02  0.1300E+02
     -0.872  0.0000E+00  0.0000E+00  0.1300E+02  0.1300E+02
     -0.795  0.0000E+00  0.0000E+00  0.1300E+02  0.1300E+02
     -0.717  0.0000E+00  0.0000E+00  0.1300E+02  0.1300E+02
     -0.640  0.0000E+00  0.0000E+00  0.1300E+02  0.1300E+02
     -0.563  0.0000E+00  0.0000E+00  0.1300E+02  0.1300E+02
     -0.486  0.0000E+00  0.0000E+00  0.1300E+02  0.1300E+02
     -0.409  0.1198E-16  0.0000E+00  0.1300E+02  0.1300E+02
     -0.331  0.1569E-09  0.0000E+00  0.1300E+02  0.1300E+02
     -0.254  0.1660E-04  0.0000E+00  0.1300E+02  0.1300E+02
     -0.177  0.2073E-01  0.0000E+00  0.1300E+02  0.1300E+02
     -0.100  0.5093E+00  0.1111E-12  0.1304E+02  0.1300E+02
     -0.023  0.7816E+00  0.1089E-06  0.1310E+02  0.1300E+02
      0.055  0.4753E+00  0.1134E-02  0.1314E+02  0.1300E+02
      0.132  0.3775E+00  0.1694E+00  0.1317E+02  0.1301E+02
      0.209  0.3338E+00  0.8342E+00  0.1319E+02  0.1308E+02
      0.286  0.3101E+00  0.5999E+00  0.1322E+02  0.1312E+02
      0.364  0.2979E+00  0.4160E+00  0.1324E+02  0.1316E+02
      0.441  0.2946E+00  0.3522E+00  0.1326E+02  0.1318E+02
      0.518  0.3003E+00  0.3193E+00  0.1329E+02  0.1321E+02
      0.595  0.3177E+00  0.3014E+00  0.1331E+02  0.1323E+02
      0.672  0.3569E+00  0.2936E+00  0.1334E+02  0.1325E+02
      0.750  0.5289E+00  0.2946E+00  0.1338E+02  0.1328E+02
      0.827  0.1709E+01  0.3060E+00  0.1351E+02  0.1330E+02
      0.904  0.1543E+01  0.3826E+00  0.1363E+02  0.1333E+02
      0.981  0.6872E+00  0.8630E+00  0.1368E+02  0.1340E+02
      1.059  0.5641E+00  0.1299E+01  0.1373E+02  0.1350E+02
      1.136  0.5196E+00  0.1736E+01  0.1377E+02  0.1363E+02
      1.213  0.5027E+00  0.7538E+00  0.1381E+02  0.1369E+02
      1.290  0.5056E+00  0.5557E+00  0.1384E+02  0.1373E+02
      1.367  0.5468E+00  0.5147E+00  0.1389E+02  0.1377E+02
      1.445  0.6194E+00  0.5007E+00  0.1393E+02  0.1381E+02
      1.522  0.4258E+00  0.5061E+00  0.1397E+02  0.1385E+02
      1.599  0.3677E+00  0.5530E+00  0.1400E+02  0.1389E+02
      1.676  0.2310E+00  0.5672E+00  0.1401E+02  0.1394E+02
      1.754  0.4540E+00  0.4975E+00  0.1405E+02  0.1397E+02
      1.831  0.2734E+00  0.8178E+00  0.1407E+02  0.1404E+02
      1.908  0.2871E+00  0.3646E+00  0.1409E+02  0.1407E+02
      1.985  0.5950E+00  0.2634E+00  0.1414E+02  0.1409E+02
      2.062  0.1253E+01  0.5803E+00  0.1423E+02  0.1413E+02
      2.140  0.2461E+01  0.1379E+01  0.1442E+02  0.1424E+02
      2.217  0.2770E+01  0.1688E+01  0.1464E+02  0.1437E+02
      2.294  0.2027E+01  0.2550E+01  0.1480E+02  0.1456E+02
      2.371  0.2163E+01  0.2572E+01  0.1496E+02  0.1476E+02
      2.449  0.1601E+01  0.2078E+01  0.1509E+02  0.1492E+02
      2.526  0.1002E+01  0.1489E+01  0.1516E+02  0.1504E+02
      2.603  0.7982E+00  0.1269E+01  0.1522E+02  0.1514E+02
      2.680  0.1574E+01  0.7939E+00  0.1535E+02  0.1520E+02
      2.757  0.1797E+01  0.8206E+00  0.1549E+02  0.1526E+02
      2.835  0.9768E+00  0.1509E+01  0.1556E+02  0.1538E+02
      2.912  0.8023E+00  0.1534E+01  0.1562E+02  0.1550E+02
      2.989  0.1058E+01  0.1151E+01  0.1570E+02  0.1559E+02
      3.066  0.1873E+01  0.9155E+00  0.1585E+02  0.1566E+02
      3.143  0.2421E+01  0.1465E+01  0.1604E+02  0.1577E+02
      3.221  0.2526E+01  0.1833E+01  0.1623E+02  0.1591E+02
      3.298  0.2246E+01  0.2453E+01  0.1640E+02  0.1610E+02
      3.375  0.1202E+01  0.2277E+01  0.1650E+02  0.1628E+02
      3.452  0.9079E+00  0.2072E+01  0.1657E+02  0.1644E+02
      3.530  0.5879E+00  0.1046E+01  0.1661E+02  0.1652E+02
      3.607  0.3802E+00  0.9145E+00  0.1664E+02  0.1659E+02
      3.684  0.4065E+00  0.5006E+00  0.1667E+02  0.1663E+02
      3.761  0.4590E+00  0.3894E+00  0.1671E+02  0.1666E+02
      3.838  0.2546E+00  0.4306E+00  0.1673E+02  0.1669E+02
      3.916  0.2178E+00  0.4128E+00  0.1675E+02  0.1672E+02
      3.993  0.2089E+00  0.2018E+00  0.1676E+02  0.1674E+02
      4.070  0.1826E+00  0.1849E+00  0.1678E+02  0.1675E+02
      4.147  0.2241E+00  0.1680E+00  0.1679E+02  0.1676E+02
      4.225  0.4344E+00  0.1106E+00  0.1683E+02  0.1677E+02
      4.302  0.2995E+00  0.2607E+00  0.1685E+02  0.1679E+02
      4.379  0.1791E+00  0.4180E+00  0.1686E+02  0.1682E+02
      4.456  0.1806E+00  0.3129E+00  0.1688E+02  0.1685E+02
      4.533  0.2072E+00  0.1050E+00  0.1689E+02  0.1686E+02
      4.611  0.6683E+00  0.1112E+00  0.1694E+02  0.1687E+02
      4.688  0.5721E+00  0.4596E+00  0.1699E+02  0.1690E+02
      4.765  0.1412E+00  0.8413E+00  0.1700E+02  0.1697E+02
      4.842  0.2057E-02  0.4111E+00  0.1700E+02  0.1700E+02
      4.920  0.5849E-06  0.2701E-01  0.1700E+02  0.1700E+02
      4.997  0.1992E-11  0.4596E-04  0.1700E+02  0.1700E+02
      5.074  0.0000E+00  0.1002E-08  0.1700E+02  0.1700E+02
      5.151  0.0000E+00  0.2157E-15  0.1700E+02  0.1700E+02
      5.228  0.0000E+00  0.0000E+00  0.1700E+02  0.1700E+02
      5.306  0.0000E+00  0.0000E+00  0.1700E+02  0.1700E+02
      5.383  0.0000E+00  0.0000E+00  0.1700E+02  0.1700E+02
      5.460  0.0000E+00  0.0000E+00  0.1700E+02  0.1700E+02
      5.537  0.0000E+00  0.0000E+00  0.1700E+02  0.1700E+02
      5.614  0.0000E+00  0.0000E+00  0.1700E+02  0.1700E+02
      5.692  0.0000E+00  0.0000E+00  0.1700E+02  0.1700E+02
      5.769  0.0000E+00  0.0000E+00  0.1700E+02  0.1700E+02
      5.846  0.0000E+00  0.0000E+00  0.1700E+02  0.1700E+02
      5.84612636    -17.31950746  301     -3.02920710      1.00000000
    -17.320  0.0000E+00  0.0000E+00  0.0000E+00  0.0000E+00  0.0000E+00  0.0000E+00  0.0000E+00  0.0000E+00  0.0000E+00  0.0000E+00  0.0000E+00  0.0000E+00  0.0000E+00  0.0000E+00  0.0000E+00  0.0000E+00  0.0000E+00  0.0000E+00
    -17.242  0.0000E+00  0.0000E+00  0.0000E+00  0.0000E+00  0.0000E+00  0.0000E+00  0.0000E+00  0.0000E+00  0.0000E+00  0.0000E+00  0.0000E+00  0.0000E+00  0.0000E+00  0.0000E+00  0.0000E+00  0.0000E+00  0.0000E+00  0.0000E+00
    -17.165  0.0000E+00  0.0000E+00  0.0000E+00  0.0000E+00  0.0000E+00  0.0000E+00  0.0000E+00  0.0000E+00  0.0000E+00  0.0000E+00  0.0000E+00  0.0000E+00  0.0000E+00  0.0000E+00  0.0000E+00  0.0000E+00  0.0000E+00  0.0000E+00
    -17.088  0.0000E+00  0.0000E+00  0.0000E+00  0.0000E+00  0.0000E+00  0.0000E+00  0.0000E+00  0.0000E+00  0.0000E+00  0.0000E+00  0.0000E+00  0.0000E+00  0.0000E+00  0.0000E+00  0.0000E+00  0.0000E+00  0.0000E+00  0.0000E+00
    -17.011  0.0000E+00  0.0000E+00  0.0000E+00  0.0000E+00  0.0000E+00  0.0000E+00  0.0000E+00  0.0000E+00  0.0000E+00  0.0000E+00  0.0000E+00  0.0000E+00  0.0000E+00  0.0000E+00  0.0000E+00  0.0000E+00  0.0000E+00  0.0000E+00
    -16.933  0.0000E+00  0.0000E+00  0.0000E+00  0.0000E+00  0.0000E+00  0.0000E+00  0.0000E+00  0.0000E+00  0.0000E+00  0.0000E+00  0.0000E+00  0.0000E+00  0.0000E+00  0.0000E+00  0.0000E+00  0.0000E+00  0.0000E+00  0.0000E+00
    -16.856  0.0000E+00  0.0000E+00  0.0000E+00  0.0000E+00  0.0000E+00  0.0000E+00  0.0000E+00  0.0000E+00  0.0000E+00  0.0000E+00  0.0000E+00  0.0000E+00  0.0000E+00  0.0000E+00  0.0000E+00  0.0000E+00  0.0000E+00  0.0000E+00
    -16.779  0.0000E+00  0.0000E+00  0.0000E+00  0.0000E+00  0.0000E+00  0.0000E+00  0.0000E+00  0.0000E+00  0.0000E+00  0.0000E+00  0.0000E+00  0.0000E+00  0.0000E+00  0.0000E+00  0.0000E+00  0.0000E+00  0.0000E+00  0.0000E+00
    -16.702  0.0000E+00  0.0000E+00  0.0000E+00  0.0000E+00  0.0000E+00  0.0000E+00  0.0000E+00  0.0000E+00  0.0000E+00  0.0000E+00  0.0000E+00  0.0000E+00  0.0000E+00  0.0000E+00  0.0000E+00  0.0000E+00  0.0000E+00  0.0000E+00
    -16.625  0.0000E+00  0.0000E+00  0.0000E+00  0.0000E+00  0.0000E+00  0.0000E+00  0.0000E+00  0.0000E+00  0.0000E+00  0.0000E+00  0.0000E+00  0.0000E+00  0.0000E+00  0.0000E+00  0.0000E+00  0.0000E+00  0.0000E+00  0.0000E+00
    -16.547  0.1731E-16  0.0000E+00  0.6015E-20  0.0000E+00  0.8976E-21  0.0000E+00  0.3330E-20  0.0000E+00  0.1787E-19  0.0000E+00  0.1791E-19  0.0000E+00  0.7988E-23  0.0000E+00  0.1796E-19  0.0000E+00  0.4646E-23  0.0000E+00
    -16.470  0.8205E-10  0.0000E+00  0.3942E-13  0.0000E+00  0.5991E-14  0.0000E+00  0.2152E-13  0.0000E+00  0.8458E-13  0.0000E+00  0.8484E-13  0.0000E+00  0.6903E-16  0.0000E+00  0.8517E-13  0.0000E+00  0.4618E-16  0.0000E+00
    -16.393  0.4001E-05  0.0000E+00  0.2973E-08  0.0000E+00  0.4523E-09  0.0000E+00  0.1624E-08  0.0000E+00  0.4113E-08  0.0000E+00  0.4133E-08  0.0000E+00  0.7590E-11  0.0000E+00  0.4158E-08  0.0000E+00  0.5080E-11  0.0000E+00
    -16.316  0.2437E-02  0.3562E-11  0.3379E-05  0.1563E-14  0.5154E-06  0.2376E-15  0.1848E-05  0.8536E-15  0.2487E-05  0.3593E-14  0.2511E-05  0.3604E-14  0.1450E-07  0.1276E-17  0.2539E-05  0.3617E-14  0.9710E-08  0.8402E-18
    -16.238  0.3403E-01  0.4967E-06  0.1176E-03  0.3268E-09  0.1804E-04  0.4974E-10  0.6447E-04  0.1786E-09  0.3394E-04  0.4997E-09  0.3476E-04  0.5020E-09  0.1005E-05  0.3777E-12  0.3573E-04  0.5047E-09  0.6727E-06  0.2502E-12
    -16.161  0.3777E-01  0.8069E-03  0.4500E-03  0.9400E-06  0.7005E-04  0.1434E-06  0.2483E-03  0.5142E-06  0.3429E-04  0.8073E-06  0.3730E-04  0.8139E-06  0.8330E-05  0.1751E-08  0.4092E-04  0.8215E-06  0.5568E-05  0.1166E-08
    -16.084  0.2208E-01  0.2466E-01  0.7052E-03  0.6644E-04  0.1125E-03  0.1020E-04  0.3935E-03  0.3644E-04  0.1587E-04  0.2425E-04  0.2023E-04  0.2472E-04  0.2510E-04  0.2367E-06  0.2565E-04  0.2526E-04  0.1672E-04  0.1576E-06
    -16.007  0.1655E-01  0.4274E-01  0.8938E-03  0.3725E-03  0.1470E-03  0.5806E-04  0.5055E-03  0.2057E-03  0.9127E-05  0.3928E-04  0.1412E-04  0.4178E-04  0.5085E-04  0.2846E-05  0.2061E-04  0.4476E-04  0.3369E-04  0.1884E-05
    -15.930  0.1345E-01  0.2448E-01  0.1059E-02  0.6534E-03  0.1803E-03  0.1047E-03  0.6081E-03  0.3652E-03  0.5480E-05  0.1824E-04  0.1075E-04  0.2232E-04  0.8660E-04  0.9959E-05  0.1796E-04  0.2734E-04  0.5698E-04  0.6520E-05
    -15.852  0.1131E-01  0.1764E-01  0.1213E-02  0.8480E-03  0.2153E-03  0.1408E-03  0.7093E-03  0.4814E-03  0.3222E-05  0.1014E-04  0.8532E-05  0.1495E-04  0.1345E-03  0.2122E-04  0.1622E-04  0.2113E-04  0.8768E-04  0.1368E-04
    -15.775  0.9665E-02  0.1416E-01  0.1364E-02  0.1012E-02  0.2539E-03  0.1751E-03  0.8144E-03  0.5849E-03  0.1800E-05  0.6079E-05  0.6959E-05  0.1123E-04  0.1978E-03  0.3672E-04  0.1495E-04  0.1818E-04  0.1274E-03  0.2326E-04
    -15.698  0.8319E-02  0.1183E-01  0.1517E-02  0.1163E-02  0.2991E-03  0.2106E-03  0.9285E-03  0.6853E-03  0.9629E-06  0.3606E-05  0.5804E-05  0.8842E-05  0.2816E-03  0.5711E-04  0.1391E-04  0.1630E-04  0.1784E-03  0.3541E-04
    -15.621  0.7161E-02  0.1008E-01  0.1680E-02  0.1307E-02  0.3551E-03  0.2497E-03  0.1059E-02  0.7880E-03  0.5713E-06  0.2045E-05  0.4943E-05  0.7173E-05  0.3935E-03  0.8343E-04  0.1301E-04  0.1496E-04  0.2437E-03  0.5039E-04
    -15.543  0.6120E-02  0.8669E-02  0.1913E-02  0.1451E-02  0.4826E-03  0.2950E-03  0.1269E-02  0.8976E-03  0.5467E-06  0.1103E-05  0.4306E-05  0.5956E-05  0.5463E-03  0.1172E-03  0.1215E-04  0.1388E-04  0.3304E-03  0.6854E-04
    -15.466  0.5137E-02  0.7467E-02  0.4651E-02  0.1601E-02  0.3211E-02  0.3503E-03  0.4047E-02  0.1020E-02  0.8595E-06  0.6243E-06  0.3873E-05  0.5053E-05  0.8161E-03  0.1608E-03  0.1128E-04  0.1296E-04  0.8011E-03  0.9029E-04
    -15.389  0.4144E-02  0.6401E-02  0.8238E-02  0.1769E-02  0.7340E-02  0.4249E-03  0.7983E-02  0.1168E-02  0.1535E-05  0.5197E-06  0.3678E-05  0.4386E-05  0.1508E-02  0.2176E-03  0.1036E-04  0.1209E-04  0.3382E-02  0.1159E-03
    -15.312  0.2958E-02  0.5409E-02  0.7552E-02  0.2641E-02  0.7039E-02  0.1219E-02  0.7431E-02  0.2037E-02  0.3058E-05  0.7397E-06  0.3953E-05  0.3904E-05  0.2654E-02  0.2971E-03  0.8323E-05  0.1121E-04  0.6773E-02  0.1710E-03
    -15.235  0.1763E-02  0.4435E-02  0.1383E-01  0.7462E-02  0.1219E-01  0.6250E-02  0.1237E-01  0.7019E-02  0.1193E-04  0.1278E-05  0.1096E-04  0.3613E-05  0.7199E-02  0.4819E-03  0.6268E-05  0.1024E-04  0.1244E-01  0.7295E-03
    -15.157  0.8604E-02  0.3372E-02  0.1119E-01  0.7145E-02  0.1134E-01  0.6431E-02  0.1057E-01  0.6989E-02  0.3015E-04  0.2203E-05  0.2819E-04  0.3494E-05  0.2650E-01  0.8216E-03  0.5317E-04  0.8740E-05  0.5388E-01  0.1949E-02
    -15.080  0.8657E-02  0.1982E-02  0.4768E-02  0.1142E-01  0.1210E-01  0.1001E-01  0.7861E-02  0.1042E-01  0.2263E-04  0.6232E-05  0.2980E-04  0.6100E-05  0.2488E-01  0.1621E-02  0.8313E-04  0.5642E-05  0.7201E-01  0.3169E-02
    -15.003  0.4634E-03  0.1032E-02  0.2420E-03  0.1178E-01  0.1716E-02  0.9789E-02  0.7504E-03  0.1005E-01  0.1492E-05  0.1806E-04  0.3583E-05  0.1592E-04  0.1688E-02  0.4021E-02  0.8576E-05  0.4223E-05  0.8049E-02  0.5336E-02
    -14.926  0.8122E-06  0.6096E-02  0.4869E-06  0.8625E-02  0.7523E-05  0.8750E-02  0.2051E-05  0.8009E-02  0.2947E-08  0.3204E-04  0.1523E-07  0.2962E-04  0.3486E-05  0.1050E-01  0.2798E-07  0.4500E-04  0.3168E-04  0.1981E-01
    -14.849  0.2389E-10  0.1203E-01  0.2332E-10  0.3442E-02  0.4996E-09  0.1204E-01  0.8058E-10  0.7417E-02  0.8859E-13  0.2454E-04  0.1032E-11  0.3438E-04  0.1091E-09  0.1216E-01  0.1472E-11  0.1129E-03  0.2016E-08  0.3826E-01
    -14.771  0.7912E-17  0.1105E-02  0.1599E-16  0.1588E-03  0.3759E-15  0.2074E-02  0.3706E-16  0.8634E-03  0.2973E-19  0.1959E-05  0.7912E-18  0.5004E-05  0.3747E-16  0.1106E-02  0.9495E-18  0.1484E-04  0.1488E-14  0.5328E-02
    -14.694  0.0000E+00  0.2641E-05  0.0000E+00  0.4409E-06  0.0000E+00  0.1193E-04  0.0000E+00  0.2980E-05  0.0000E+00  0.5269E-08  0.0000E+00  0.2799E-07  0.0000E+00  0.3000E-05  0.0000E+00  0.5796E-07  0.0000E+00  0.2538E-04
    -14.617  0.0000E+00  0.9983E-10  0.0000E+00  0.3480E-10  0.0000E+00  0.1104E-08  0.0000E+00  0.1516E-09  0.0000E+00  0.2220E-12  0.0000E+00  0.2631E-11  0.0000E+00  0.1250E-09  0.0000E+00  0.3922E-11  0.0000E+00  0.2135E-08
    -14.540  0.0000E+00  0.4334E-16  0.0000E+00  0.3578E-16  0.0000E+00  0.1182E-14  0.0000E+00  0.9147E-16  0.0000E+00  0.1027E-18  0.0000E+00  0.2856E-17  0.0000E+00  0.5739E-16  0.0000E+00  0.3454E-17  0.0000E+00  0.2191E-14
    -14.462  0.0000E+00  0.0000E+00  0.0000E+00  0.0000E+00  0.0000E+00  0.0000E+00  0.0000E+00  0.0000E+00  0.0000E+00  0.0000E+00  0.0000E+00  0.0000E+00  0.0000E+00  0.0000E+00  0.0000E+00  0.0000E+00  0.0000E+00  0.0000E+00
    -14.385  0.0000E+00  0.0000E+00  0.0000E+00  0.0000E+00  0.0000E+00  0.0000E+00  0.0000E+00  0.0000E+00  0.0000E+00  0.0000E+00  0.0000E+00  0.0000E+00  0.0000E+00  0.0000E+00  0.0000E+00  0.0000E+00  0.0000E+00  0.0000E+00
    -14.308  0.0000E+00  0.0000E+00  0.0000E+00  0.0000E+00  0.0000E+00  0.0000E+00  0.0000E+00  0.0000E+00  0.0000E+00  0.0000E+00  0.0000E+00  0.0000E+00  0.0000E+00  0.0000E+00  0.0000E+00  0.0000E+00  0.0000E+00  0.0000E+00
    -14.231  0.0000E+00  0.0000E+00  0.0000E+00  0.0000E+00  0.0000E+00  0.0000E+00  0.0000E+00  0.0000E+00  0.0000E+00  0.0000E+00  0.0000E+00  0.0000E+00  0.0000E+00  0.0000E+00  0.0000E+00  0.0000E+00  0.0000E+00  0.0000E+00
    -14.154  0.0000E+00  0.0000E+00  0.0000E+00  0.0000E+00  0.0000E+00  0.0000E+00  0.0000E+00  0.0000E+00  0.0000E+00  0.0000E+00  0.0000E+00  0.0000E+00  0.0000E+00  0.0000E+00  0.0000E+00  0.0000E+00  0.0000E+00  0.0000E+00
    -14.076  0.0000E+00  0.0000E+00  0.0000E+00  0.0000E+00  0.0000E+00  0.0000E+00  0.0000E+00  0.0000E+00  0.0000E+00  0.0000E+00  0.0000E+00  0.0000E+00  0.0000E+00  0.0000E+00  0.0000E+00  0.0000E+00  0.0000E+00  0.0000E+00
    -13.999  0.0000E+00  0.0000E+00  0.0000E+00  0.0000E+00  0.0000E+00  0.0000E+00  0.0000E+00  0.0000E+00  0.0000E+00  0.0000E+00  0.0000E+00  0.0000E+00  0.0000E+00  0.0000E+00  0.0000E+00  0.0000E+00  0.0000E+00  0.0000E+00
    -13.922  0.0000E+00  0.0000E+00  0.0000E+00  0.0000E+00  0.0000E+00  0.0000E+00  0.0000E+00  0.0000E+00  0.0000E+00  0.0000E+00  0.0000E+00  0.0000E+00  0.0000E+00  0.0000E+00  0.0000E+00  0.0000E+00  0.0000E+00  0.0000E+00
    -13.845  0.0000E+00  0.0000E+00  0.0000E+00  0.0000E+00  0.0000E+00  0.0000E+00  0.0000E+00  0.0000E+00  0.0000E+00  0.0000E+00  0.0000E+00  0.0000E+00  0.0000E+00  0.0000E+00  0.0000E+00  0.0000E+00  0.0000E+00  0.0000E+00
    -13.767  0.0000E+00  0.0000E+00  0.0000E+00  0.0000E+00  0.0000E+00  0.0000E+00  0.0000E+00  0.0000E+00  0.0000E+00  0.0000E+00  0.0000E+00  0.0000E+00  0.0000E+00  0.0000E+00  0.0000E+00  0.0000E+00  0.0000E+00  0.0000E+00
    -13.690  0.0000E+00  0.0000E+00  0.0000E+00  0.0000E+00  0.0000E+00  0.0000E+00  0.0000E+00  0.0000E+00  0.0000E+00  0.0000E+00  0.0000E+00  0.0000E+00  0.0000E+00  0.0000E+00  0.0000E+00  0.0000E+00  0.0000E+00  0.0000E+00
    -13.613  0.0000E+00  0.0000E+00  0.0000E+00  0.0000E+00  0.0000E+00  0.0000E+00  0.0000E+00  0.0000E+00  0.0000E+00  0.0000E+00  0.0000E+00  0.0000E+00  0.0000E+00  0.0000E+00  0.0000E+00  0.0000E+00  0.0000E+00  0.0000E+00
    -13.536  0.0000E+00  0.0000E+00  0.0000E+00  0.0000E+00  0.0000E+00  0.0000E+00  0.0000E+00  0.0000E+00  0.0000E+00  0.0000E+00  0.0000E+00  0.0000E+00  0.0000E+00  0.0000E+00  0.0000E+00  0.0000E+00  0.0000E+00  0.0000E+00
    -13.459  0.0000E+00  0.0000E+00  0.0000E+00  0.0000E+00  0.0000E+00  0.0000E+00  0.0000E+00  0.0000E+00  0.0000E+00  0.0000E+00  0.0000E+00  0.0000E+00  0.0000E+00  0.0000E+00  0.0000E+00  0.0000E+00  0.0000E+00  0.0000E+00