    3    3    1    2
  0.1126013E+03  0.3950000E-09  0.3950000E-09  0.2500000E-08  0.5000000E-15
  1.000000000000000E-004
  CAR 
 NiI2                                    
     24    120     17
 
  0.0000000E+00  0.0000000E+00  0.0000000E+00  0.8333333E-02
    1      -16.266524    -16.094224   1.000000   1.000000
    2      -15.466171    -15.277210   1.000000   1.000000
    3       -8.316822     -7.469585   1.000000   1.000000
    4       -8.316820     -6.224489   1.000000   1.000000
    5       -7.862131     -6.224459   1.000000   1.000000
    6       -7.104683     -5.655558   1.000000   1.000000
    7       -7.104636     -4.644538   1.000000   1.000000
    8       -6.385785     -4.644536   1.000000   1.000000
    9       -4.497934     -4.317188   1.000000   1.000000
   10       -3.597207     -3.400036   1.000000   1.000000
   11       -3.597207     -3.400033   1.000000   1.000000
   12       -3.246802     -1.552993   1.000000   0.000000
   13       -3.246794     -1.552953   1.000000   0.000000
   14        0.792071      0.944748   0.000000   0.000000
   15        1.682367      1.767943   0.000000   0.000000
   16        2.047523      2.106292   0.000000   0.000000
   17        2.293428      2.364871   0.000000   0.000000
 
  0.8547000E-02  0.8547000E-02  0.0000000E+00  0.8333333E-02
    1      -16.264967    -16.092652   1.000000   1.000000
    2      -15.465359    -15.276282   1.000000   1.000000
    3       -8.317008     -7.467886   1.000000   1.000000
    4       -8.316722     -6.225878   1.000000   1.000000
    5       -7.860645     -6.224146   1.000000   1.000000
    6       -7.105276     -5.656584   1.000000   1.000000
    7       -7.104595     -4.654615   1.000000   1.000000
    8       -6.386327     -4.645694   1.000000   1.000000
    9       -4.496468     -4.309549   1.000000   1.000000
   10       -3.611660     -3.412100   1.000000   1.000000
   11       -3.602402     -3.402905   1.000000   1.000000
   12       -3.255234     -1.560586   1.000000   0.000000
   13       -3.246222     -1.553536   1.000000   0.000000
   14        0.801647      0.954299   0.000000   0.000000
   15        1.695549      1.782248   0.000000   0.000000
   16        2.049523      2.108410   0.000000   0.000000
   17        2.295560      2.367606   0.000000   0.000000
 
  0.1709400E-01  0.1709400E-01  0.0000000E+00  0.8333333E-02
    1      -16.260285    -16.087931   1.000000   1.000000
    2      -15.462926    -15.273503   1.000000   1.000000
    3       -8.317411     -7.462774   1.000000   1.000000
    4       -8.316314     -6.229823   1.000000   1.000000
    5       -7.856167     -6.223049   1.000000   1.000000
    6       -7.106907     -5.659641   1.000000   1.000000
    7       -7.104374     -4.682270   1.000000   1.000000
    8       -6.387945     -4.649147   1.000000   1.000000
    9       -4.492118     -4.289197   1.000000   1.000000
   10       -3.653181     -3.447610   1.000000   1.000000
   11       -3.618674     -3.411544   1.000000   1.000000
   12       -3.279263     -1.582541   1.000000   0.000000
   13       -3.245813     -1.555453   1.000000   0.000000
   14        0.829809      0.982412   0.000000   0.000000
   15        1.734360      1.824211   0.000000   0.000000
   16        2.055509      2.114762   0.000000   0.000000
   17        2.301600      2.375631   0.000000   0.000000
 
  0.2564100E-01  0.2564100E-01  0.0000000E+00  0.8333333E-02
    1      -16.252503    -16.080080   1.000000   1.000000
    2      -15.458897    -15.268898   1.000000   1.000000
    3       -8.318072     -7.454264   1.000000   1.000000
    4       -8.315670     -6.236471   1.000000   1.000000
    5       -7.848709     -6.221329   1.000000   1.000000
    6       -7.109666     -5.664823   1.000000   1.000000
    7       -7.104062     -4.722404   1.000000   1.000000
    8       -6.390703     -4.654944   1.000000   1.000000
    9       -4.485063     -4.261319   1.000000   1.000000
   10       -3.717649     -3.504660   1.000000   1.000000
   11       -3.648108     -3.426079   1.000000   1.000000
   12       -3.315240     -1.616622   1.000000   0.000000
   13       -3.248286     -1.559187   1.000000   0.000000
   14        0.874934      1.027538   0.000000   0.000000
   15        1.796713      1.891125   0.000000   0.000000
   16        2.065460      2.125350   0.000000   0.000000
   17        2.310393      2.388170   0.000000   0.000000
 
  0.3418800E-01  0.3418800E-01  0.0000000E+00  0.8333333E-02
    1      -16.241651    -16.069130   1.000000   1.000000
    2      -15.453302    -15.262501   1.000000   1.000000
    3       -8.318938     -7.442437   1.000000   1.000000
    4       -8.314811     -6.245917   1.000000   1.000000
    5       -7.838352     -6.219051   1.000000   1.000000
    6       -7.113578     -5.672259   1.000000   1.000000
    7       -7.103670     -4.770638   1.000000   1.000000
    8       -6.394677     -4.663141   1.000000   1.000000
    9       -4.475618     -4.230380   1.000000   1.000000
   10       -3.800597     -3.580391   1.000000   1.000000
   11       -3.693767     -3.446677   1.000000   1.000000
   12       -3.357677     -1.659569   1.000000   0.000000
   13       -3.255919     -1.565349   1.000000   0.000000
   14        0.934578      1.087342   0.000000   0.000000
   15        1.879320      1.978839   0.000000   0.000000
   16        2.079403      2.140300   0.000000   0.000000
   17        2.319734      2.403668   0.000000   0.000000
 
  0.4273500E-01  0.4273500E-01  0.0000000E+00  0.8333333E-02
    1      -16.227774    -16.055124   1.000000   1.000000
    2      -15.446184    -15.254361   1.000000   1.000000
    3       -8.319915     -7.427369   1.000000   1.000000
    4       -8.313763     -6.258140   1.000000   1.000000
    5       -7.825157     -6.216333   1.000000   1.000000
    6       -7.118603     -5.682090   1.000000   1.000000
    7       -7.103232     -4.824107   1.000000   1.000000
    8       -6.399959     -4.673805   1.000000   1.000000
    9       -4.464311     -4.199378   1.000000   1.000000
   10       -3.898069     -3.671407   1.000000   1.000000
   11       -3.758232     -3.473486   1.000000   1.000000
   12       -3.400926     -1.707652   1.000000   0.000000
   13       -3.269972     -1.574535   1.000000   0.000000
   14        1.005763      1.158988   0.000000   0.000000
   15        1.977657      2.081350   0.000000   0.000000
   16        2.097774      2.160826   0.000000   0.000000
   17        2.326123      2.420772   0.000000   0.000000
 
  0.5128200E-01  0.5128200E-01  0.0000000E+00  0.8333333E-02
    1      -16.210929    -16.038118   1.000000   1.000000
    2      -15.437604    -15.244542   1.000000   1.000000
    3       -8.320853     -7.409169   1.000000   1.000000
    4       -8.312566     -6.273186   1.000000   1.000000
    5       -7.809226     -6.213357   1.000000   1.000000
    6       -7.124719     -5.694516   1.000000   1.000000
    7       -7.102808     -4.880989   1.000000   1.000000
    8       -6.406689     -4.687027   1.000000   1.000000
    9       -4.452009     -4.170253   1.000000   1.000000
   10       -4.006623     -3.774108   1.000000   1.000000
   11       -3.841526     -3.506590   1.000000   1.000000
   12       -3.441431     -1.757178   1.000000   0.000000
   13       -3.290936     -1.587209   1.000000   0.000000
   14        1.085269      1.239449   0.000000   0.000000
   15        2.081132      2.167903   0.000000   0.000000
   16        2.126626      2.212580   0.000000   0.000000
   17        2.324600      2.430973   0.000000   0.000000
 
  0.5982900E-01  0.5982900E-01  0.0000000E+00  0.8333333E-02
    1      -16.191196    -16.018188   1.000000   1.000000
    2      -15.427628    -15.233119   1.000000   1.000000
    3       -8.321697     -7.388006   1.000000   1.000000
    4       -8.311263     -6.291140   1.000000   1.000000
    5       -7.790703     -6.210338   1.000000   1.000000
    6       -7.131944     -5.709769   1.000000   1.000000
    7       -7.102428     -4.940091   1.000000   1.000000
    8       -6.415029     -4.702898   1.000000   1.000000
    9       -4.440312     -4.144351   1.000000   1.000000
   10       -4.123206     -3.884951   1.000000   1.000000
   11       -3.940165     -3.545916   1.000000   1.000000
   12       -3.478482     -1.804850   1.000000   0.000000
   13       -3.318845     -1.603626   1.000000   0.000000
   14        1.169852      1.325756   0.000000   0.000000
   15        2.132769      2.200097   0.000000   0.000000
   16        2.218327      2.329262   0.000000   0.000000
   17        2.310145      2.432954   0.000000   0.000000
 
  0.6837600E-01  0.6837600E-01  0.0000000E+00  0.8333333E-02
    1      -16.168656    -15.995413   1.000000   1.000000
    2      -15.416337    -15.220184   1.000000   1.000000
    3       -8.322268     -7.364040   1.000000   1.000000
    4       -8.309891     -6.312084   1.000000   1.000000
    5       -7.769724     -6.207637   1.000000   1.000000
    6       -7.140287     -5.728012   1.000000   1.000000
    7       -7.102189     -5.000505   1.000000   1.000000
    8       -6.425160     -4.721503   1.000000   1.000000
    9       -4.432581     -4.122657   1.000000   1.000000
   10       -4.245033     -4.000563   1.000000   1.000000
   11       -4.047465     -3.591174   1.000000   1.000000
   12       -3.513012     -1.848007   1.000000   0.000000
   13       -3.353505     -1.623865   1.000000   0.000000
   14        1.256308      1.415137   0.000000   0.000000
   15        2.161279      2.229198   0.000000   0.000000
   16        2.280666      2.417371   0.000000   0.000000
   17        2.341246      2.479796   0.000000   0.000000
 
  0.7692300E-01  0.7692300E-01  0.0000000E+00  0.8333333E-02
    1      -16.143410    -15.969890   1.000000   1.000000
    2      -15.403831    -15.205843   1.000000   1.000000
    3       -8.322451     -7.337522   1.000000   1.000000
    4       -8.308538     -6.336113   1.000000   1.000000
    5       -7.746492     -6.205800   1.000000   1.000000
    6       -7.149777     -5.749345   1.000000   1.000000
    7       -7.102230     -5.061516   1.000000   1.000000
    8       -6.437284     -4.742909   1.000000   1.000000
    9       -4.437316     -4.117860   1.000000   1.000000
   10       -4.369578     -4.105974   1.000000   1.000000
   11       -4.151683     -3.641804   1.000000   1.000000
   12       -3.546177     -1.884702   1.000000   0.000000
   13       -3.394594     -1.647825   1.000000   0.000000
   14        1.341340      1.504996   0.000000   0.000000
   15        2.189945      2.260041   0.000000   0.000000
   16        2.239155      2.384832   0.000000   0.000000
   17        2.470021      2.601520   0.000000   0.000000
 
  0.8547000E-01  0.8547000E-01  0.0000000E+00  0.8333333E-02
    1      -16.115566    -15.941723   1.000000   1.000000
    2      -15.390214    -15.190216   1.000000   1.000000
    3       -8.322072     -7.308742   1.000000   1.000000
    4       -8.307250     -6.363268   1.000000   1.000000
    5       -7.721228     -6.205509   1.000000   1.000000
    6       -7.160425     -5.773658   1.000000   1.000000
    7       -7.102673     -5.122488   1.000000   1.000000
    8       -6.451604     -4.767148   1.000000   1.000000
    9       -4.494539     -4.234082   1.000000   1.000000
   10       -4.474707     -4.094990   1.000000   1.000000
   11       -4.230095     -3.696966   1.000000   1.000000
   12       -3.578729     -1.913727   1.000000   0.000000
   13       -3.441723     -1.675246   1.000000   0.000000
   14        1.421128      1.592632   0.000000   0.000000
   15        2.192853      2.292556   0.000000   0.000000
   16        2.219627      2.340841   0.000000   0.000000
   17        2.610869      2.720524   0.000000   0.000000
 
  0.9401700E-01  0.9401700E-01  0.0000000E+00  0.8333333E-02
    1      -16.085252    -15.911037   1.000000   1.000000
    2      -15.375605    -15.173435   1.000000   1.000000
    3       -8.320934     -7.278064   1.000000   1.000000
    4       -8.306092     -6.393485   1.000000   1.000000
    5       -7.694184     -6.207751   1.000000   1.000000
    6       -7.172195     -5.800446   1.000000   1.000000
    7       -7.103676     -5.182831   1.000000   1.000000
    8       -6.468283     -4.794192   1.000000   1.000000
    9       -4.617834     -4.346840   1.000000   1.000000
   10       -4.561385     -4.090341   1.000000   1.000000
   11       -4.264358     -3.755543   1.000000   1.000000
   12       -3.610872     -1.934514   1.000000   0.000000
   13       -3.494432     -1.705742   1.000000   0.000000
   14        1.490571      1.674559   0.000000   0.000000
   15        2.151131      2.294160   0.000000   0.000000
   16        2.249848      2.326163   0.000000   0.000000
   17        2.716591      2.852475   0.000000   0.000000
 
  0.1025640E+00  0.1025640E+00  0.0000000E+00  0.8333333E-02
    1      -16.052614    -15.877971   1.000000   1.000000
    2      -15.360131    -15.155646   1.000000   1.000000
    3       -8.318901     -7.245968   1.000000   1.000000
    4       -8.305160     -6.426802   1.000000   1.000000
    5       -7.665674     -6.213994   1.000000   1.000000
    6       -7.185165     -5.828660   1.000000   1.000000
    7       -7.105512     -5.241987   1.000000   1.000000
    8       -6.487440     -4.823940   1.000000   1.000000
    9       -4.737606     -4.454185   1.000000   1.000000
   10       -4.679976     -4.092689   1.000000   1.000000
   11       -4.270906     -3.816153   1.000000   1.000000
   12       -3.642302     -1.947071   1.000000   0.000000
   13       -3.552197     -1.738825   1.000000   0.000000
   14        1.542628      1.745165   0.000000   0.000000
   15        2.124709      2.255183   0.000000   0.000000
   16        2.279827      2.360058   0.000000   0.000000
   17        2.858120      2.965924   0.000000   0.000000
 
  0.1111110E+00  0.1111110E+00  0.0000000E+00  0.8333333E-02
    1      -16.017818    -15.842686   1.000000   1.000000
    2      -15.343929    -15.137004   1.000000   1.000000
    3       -8.315818     -7.213075   1.000000   1.000000
    4       -8.304502     -6.463117   1.000000   1.000000
    5       -7.636070     -6.225988   1.000000   1.000000
    6       -7.199375     -5.856548   1.000000   1.000000
    7       -7.108444     -5.299440   1.000000   1.000000
    8       -6.509089     -4.856196   1.000000   1.000000
    9       -4.852246     -4.554682   1.000000   1.000000
   10       -4.810790     -4.102817   1.000000   1.000000
   11       -4.269193     -3.877149   1.000000   1.000000
   12       -3.672224     -1.951819   1.000000   0.000000
   13       -3.614401     -1.773922   1.000000   0.000000
   14        1.569751      1.795359   0.000000   0.000000
   15        2.123939      2.236570   0.000000   0.000000
   16        2.308624      2.393281   0.000000   0.000000
   17        2.978913      3.053391   0.000000   0.000000
 
  0.1196580E+00  0.1196580E+00  0.0000000E+00  0.8333333E-02
    1      -15.981031    -15.805343   1.000000   1.000000
    2      -15.327146    -15.117680   1.000000   1.000000
    3       -8.311466     -7.180173   1.000000   1.000000
    4       -8.304189     -6.502147   1.000000   1.000000
    5       -7.605753     -6.245595   1.000000   1.000000
    6       -7.214806     -5.881729   1.000000   1.000000
    7       -7.112841     -5.354721   1.000000   1.000000
    8       -6.533039     -4.890756   1.000000   1.000000
    9       -4.960430     -4.647413   1.000000   1.000000
   10       -4.945130     -4.121733   1.000000   1.000000
   11       -4.268281     -3.936584   1.000000   1.000000
   12       -3.699421     -1.949482   1.000000   0.000000
   13       -3.680341     -1.810395   1.000000   0.000000
   14        1.569176      1.815532   0.000000   0.000000
   15        2.153594      2.250290   0.000000   0.000000
   16        2.335243      2.424754   0.000000   0.000000
   17        3.112509      3.129218   0.000000   0.000000
 
  0.1282050E+00  0.1282050E+00  0.0000000E+00  0.8333333E-02
    1      -15.942445    -15.766128   1.000000   1.000000
    2      -15.309936    -15.097851   1.000000   1.000000
    3       -8.305721     -7.148366   1.000000   1.000000
    4       -8.304303     -6.543651   1.000000   1.000000
    5       -7.575231     -6.273900   1.000000   1.000000
    6       -7.231556     -5.901941   1.000000   1.000000
    7       -7.119065     -5.407422   1.000000   1.000000
    8       -6.558883     -4.927577   1.000000   1.000000
    9       -5.079034     -4.731816   1.000000   1.000000
   10       -5.061151     -4.150573   1.000000   1.000000
   11       -4.272876     -3.992397   1.000000   1.000000
   12       -3.749208     -1.940984   1.000000   0.000000
   13       -3.722430     -1.847565   1.000000   0.000000
   14        1.546139      1.805635   0.000000   0.000000
   15        2.209832      2.297934   0.000000   0.000000
   16        2.358706      2.453351   0.000000   0.000000
   17        3.175812      3.211560   0.000000   0.000000
 
  0.1367520E+00  0.1367520E+00  0.0000000E+00  0.8333333E-02
    1      -15.902278    -15.725253   1.000000   1.000000
    2      -15.292466    -15.077710   1.000000   1.000000
    3       -8.304916     -7.119132   1.000000   1.000000
    4       -8.298456     -6.587204   1.000000   1.000000
    5       -7.545079     -6.310357   1.000000   1.000000
    6       -7.249674     -5.915838   1.000000   1.000000
    7       -7.127572     -5.457252   1.000000   1.000000
    8       -6.585928     -4.967125   1.000000   1.000000
    9       -5.210267     -4.807326   1.000000   1.000000
   10       -5.153796     -4.189836   1.000000   1.000000
   11       -4.285984     -4.043198   1.000000   1.000000
   12       -3.820089     -1.927376   1.000000   0.000000
   13       -3.739898     -1.884734   1.000000   0.000000
   14        1.509240      1.775937   0.000000   0.000000
   15        2.284979      2.370195   0.000000   0.000000
   16        2.378215      2.478046   0.000000   0.000000
   17        3.283027      3.300118   0.000000   0.000000
 
  0.1452990E+00  0.1452990E+00  0.0000000E+00  0.8333333E-02
    1      -15.860750    -15.682930   1.000000   1.000000
    2      -15.274899    -15.057453   1.000000   1.000000
    3       -8.306072     -7.094465   1.000000   1.000000
    4       -8.289518     -6.632254   1.000000   1.000000
    5       -7.515995     -6.352173   1.000000   1.000000
    6       -7.269185     -5.923451   1.000000   1.000000
    7       -7.138683     -5.503967   1.000000   1.000000
    8       -6.613223     -5.010815   1.000000   1.000000
    9       -5.337295     -4.872772   1.000000   1.000000
   10       -5.238152     -4.238225   1.000000   1.000000
   11       -4.309380     -4.089454   1.000000   1.000000
   12       -3.891956     -1.921216   1.000000   0.000000
   13       -3.751060     -1.909756   1.000000   0.000000
   14        1.465330      1.736483   0.000000   0.000000
   15        2.372731      2.457553   0.000000   0.000000
   16        2.393273      2.498046   0.000000   0.000000
   17        3.360336      3.414548   0.000000   0.000000
 
  0.1538460E+00  0.1538460E+00  0.0000000E+00  0.8333333E-02
    1      -15.818099    -15.639387   1.000000   1.000000
    2      -15.257414    -15.037282   1.000000   1.000000
    3       -8.307839     -7.076976   1.000000   1.000000
    4       -8.278853     -6.678239   1.000000   1.000000
    5       -7.488877     -6.394876   1.000000   1.000000
    6       -7.290153     -5.925754   1.000000   1.000000
    7       -7.152564     -5.547477   1.000000   1.000000
    8       -6.639599     -5.060680   1.000000   1.000000
    9       -5.458974     -4.926634   1.000000   1.000000
   10       -5.314455     -4.292950   1.000000   1.000000
   11       -4.343606     -4.133218   1.000000   1.000000
   12       -3.963668     -1.956351   1.000000   0.000000
   13       -3.756082     -1.889241   1.000000   0.000000
   14        1.418562      1.693073   0.000000   0.000000
   15        2.403834      2.512973   0.000000   0.000000
   16        2.469208      2.554419   0.000000   0.000000
   17        3.476349      3.496580   0.000000   0.000000
 
  0.1623930E+00  0.1623930E+00  0.0000000E+00  0.8333333E-02
    1      -15.774581    -15.594876   1.000000   1.000000
    2      -15.240172    -15.017403   1.000000   1.000000
    3       -8.310164     -7.069700   1.000000   1.000000
    4       -8.266334     -6.724327   1.000000   1.000000
    5       -7.464870     -6.433080   1.000000   1.000000
    6       -7.312513     -5.924003   1.000000   1.000000
    7       -7.168767     -5.587703   1.000000   1.000000
    8       -6.663868     -5.117413   1.000000   1.000000
    9       -5.574343     -4.968672   1.000000   1.000000
   10       -5.383305     -4.351273   1.000000   1.000000
   11       -4.388117     -4.176509   1.000000   1.000000
   12       -4.033969     -1.989514   1.000000   0.000000
   13       -3.756029     -1.866939   1.000000   0.000000
   14        1.371179      1.648507   0.000000   0.000000
   15        2.410358      2.523002   0.000000   0.000000
   16        2.572221      2.657967   0.000000   0.000000
   17        3.574900      3.596527   0.000000   0.000000
 
  0.1709400E+00  0.1709400E+00  0.0000000E+00  0.8333333E-02
    1      -15.730457    -15.549650   1.000000   1.000000
    2      -15.223349    -14.998022   1.000000   1.000000
    3       -8.313058     -7.075420   1.000000   1.000000
    4       -8.251991     -6.769843   1.000000   1.000000
    5       -7.445615     -6.461927   1.000000   1.000000
    6       -7.336286     -5.919562   1.000000   1.000000
    7       -7.186097     -5.624683   1.000000   1.000000
    8       -6.685108     -5.179348   1.000000   1.000000
    9       -5.682602     -5.000882   1.000000   1.000000
   10       -5.445636     -4.411389   1.000000   1.000000
   11       -4.441728     -4.220506   1.000000   1.000000
   12       -4.101531     -2.020157   1.000000   0.000000
   13       -3.752505     -1.843943   1.000000   0.000000
   14        1.324308      1.604035   0.000000   0.000000
   15        2.413786      2.528895   0.000000   0.000000
   16        2.680513      2.766750   0.000000   0.000000
   17        3.656009      3.704535   0.000000   0.000000
 
  0.1794870E+00  0.1794870E+00  0.0000000E+00  0.8333333E-02
    1      -15.686011    -15.503983   1.000000   1.000000
    2      -15.207119    -14.979347   1.000000   1.000000
    3       -8.316537     -7.095390   1.000000   1.000000
    4       -8.235938     -6.814098   1.000000   1.000000
    5       -7.433355     -6.478637   1.000000   1.000000
    6       -7.361455     -5.913694   1.000000   1.000000
    7       -7.202382     -5.658517   1.000000   1.000000
    8       -6.702837     -5.244037   1.000000   1.000000
    9       -5.783081     -5.025775   1.000000   1.000000
   10       -5.502610     -4.472349   1.000000   1.000000
   11       -4.503052     -4.265600   1.000000   1.000000
   12       -4.164987     -2.047834   1.000000   0.000000
   13       -3.747244     -1.821304   1.000000   0.000000
   14        1.278466      1.560146   0.000000   0.000000
   15        2.415446      2.531946   0.000000   0.000000
   16        2.793313      2.879959   0.000000   0.000000
   17        3.740875      3.817404   0.000000   0.000000
 
  0.1880340E+00  0.1880340E+00  0.0000000E+00  0.8333333E-02
    1      -15.641532    -15.458160   1.000000   1.000000
    2      -15.191640    -14.961580   1.000000   1.000000
    3       -8.320406     -7.128324   1.000000   1.000000
    4       -8.218178     -6.856195   1.000000   1.000000
    5       -7.430433     -6.483216   1.000000   1.000000
    6       -7.387684     -5.907381   1.000000   1.000000
    7       -7.214593     -5.689244   1.000000   1.000000
    8       -6.717000     -5.309295   1.000000   1.000000
    9       -5.875199     -5.045085   1.000000   1.000000
   10       -5.555454     -4.533713   1.000000   1.000000
   11       -4.570739     -4.311662   1.000000   1.000000
   12       -4.222949     -2.072148   1.000000   0.000000
   13       -3.741814     -1.799967   1.000000   0.000000
   14        1.233871      1.517020   0.000000   0.000000
   15        2.416919      2.533844   0.000000   0.000000
   16        2.910070      2.997055   0.000000   0.000000
   17        3.883834      3.933634   0.000000   0.000000
 
  0.1965810E+00  0.1965810E+00  0.0000000E+00  0.8333333E-02
    1      -15.597331    -15.412485   1.000000   1.000000
    2      -15.177075    -14.944916   1.000000   1.000000
    3       -8.324516     -7.170900   1.000000   1.000000
    4       -8.199034     -6.895518   1.000000   1.000000
    5       -7.438211     -6.478386   1.000000   1.000000
    6       -7.414752     -5.901869   1.000000   1.000000
    7       -7.220556     -5.717022   1.000000   1.000000
    8       -6.728068     -5.373089   1.000000   1.000000
    9       -5.958507     -5.059898   1.000000   1.000000
   10       -5.605358     -4.595374   1.000000   1.000000
   11       -4.643627     -4.358307   1.000000   1.000000
   12       -4.274132     -2.092801   1.000000   0.000000
   13       -3.737538     -1.780839   1.000000   0.000000
   14        1.190597      1.474679   0.000000   0.000000
   15        2.419867      2.536487   0.000000   0.000000
   16        3.030273      3.117556   0.000000   0.000000
   17        3.919567      4.018827   0.000000   0.000000
 
  0.2051280E+00  0.2051280E+00  0.0000000E+00  0.8333333E-02
    1      -15.553704    -15.367248   1.000000   1.000000
    2      -15.163576    -14.929541   1.000000   1.000000
    3       -8.328626     -7.219047   1.000000   1.000000
    4       -8.178830     -6.931387   1.000000   1.000000
    5       -7.455512     -6.468048   1.000000   1.000000
    6       -7.442119     -5.898510   1.000000   1.000000
    7       -7.220383     -5.741922   1.000000   1.000000
    8       -6.736809     -5.433109   1.000000   1.000000
    9       -6.032648     -5.070837   1.000000   1.000000
   10       -5.653300     -4.657380   1.000000   1.000000
   11       -4.720731     -4.405003   1.000000   1.000000
   12       -4.317406     -2.109586   1.000000   0.000000
   13       -3.735469     -1.764679   1.000000   0.000000
   14        1.148693      1.433151   0.000000   0.000000
   15        2.425913      2.541800   0.000000   0.000000
   16        3.153304      3.240883   0.000000   0.000000
   17        4.004033      4.123271   0.000000   0.000000
 
  0.2136750E+00  0.2136750E+00  0.0000000E+00  0.8333333E-02
    1      -15.510960    -15.322758   1.000000   1.000000
    2      -15.151271    -14.915622   1.000000   1.000000
    3       -8.332391     -7.269048   1.000000   1.000000
    4       -8.158139     -6.963257   1.000000   1.000000
    5       -7.479221     -6.456281   1.000000   1.000000
    6       -7.469137     -5.898816   1.000000   1.000000
    7       -7.216156     -5.764082   1.000000   1.000000
    8       -6.744149     -5.486593   1.000000   1.000000
    9       -6.097385     -5.078277   1.000000   1.000000
   10       -5.699966     -4.719807   1.000000   1.000000
   11       -4.801219     -4.451204   1.000000   1.000000
   12       -4.351898     -2.122375   1.000000   0.000000
   13       -3.736408     -1.752169   1.000000   0.000000
   14        1.108235      1.392512   0.000000   0.000000
   15        2.436532      2.551591   0.000000   0.000000
   16        3.278242      3.366159   0.000000   0.000000
   17        4.096240      4.232125   0.000000   0.000000
 
  0.2222220E+00  0.2222220E+00  0.0000000E+00  0.8333333E-02
    1      -15.469392    -15.279302   1.000000   1.000000
    2      -15.140283    -14.903307   1.000000   1.000000
    3       -8.335423     -7.317955   1.000000   1.000000
    4       -8.137694     -6.990689   1.000000   1.000000
    5       -7.506098     -6.446954   1.000000   1.000000
    6       -7.494878     -5.904277   1.000000   1.000000
    7       -7.210303     -5.783560   1.000000   1.000000
    8       -6.751091     -5.530504   1.000000   1.000000
    9       -6.152567     -5.082462   1.000000   1.000000
   10       -5.745647     -4.782729   1.000000   1.000000
   11       -4.884385     -4.496381   1.000000   1.000000
   12       -4.377075     -2.131117   1.000000   0.000000
   13       -3.740939     -1.743808   1.000000   0.000000
   14        1.069369      1.352931   0.000000   0.000000
   15        2.452993      2.567443   0.000000   0.000000
   16        3.403549      3.491921   0.000000   0.000000
   17        4.187309      4.320068   0.000000   0.000000
 
  0.2307690E+00  0.2307690E+00  0.0000000E+00  0.8333333E-02
    1      -15.429295    -15.237177   1.000000   1.000000
    2      -15.130713    -14.892729   1.000000   1.000000
    3       -8.337308     -7.363544   1.000000   1.000000
    4       -8.118459     -7.013286   1.000000   1.000000
    5       -7.533633     -6.443620   1.000000   1.000000
    6       -7.518144     -5.915392   1.000000   1.000000
    7       -7.204631     -5.800392   1.000000   1.000000
    8       -6.758579     -5.562403   1.000000   1.000000
    9       -6.198117     -5.083542   1.000000   1.000000
   10       -5.790227     -4.846135   1.000000   1.000000
   11       -4.969620     -4.540104   1.000000   1.000000
   12       -4.392784     -2.135829   1.000000   0.000000
   13       -3.749461     -1.739936   1.000000   0.000000
   14        1.032314      1.314667   0.000000   0.000000
   15        2.476308      2.590641   0.000000   0.000000
   16        3.526219      3.615350   0.000000   0.000000
   17        4.252063      4.407800   0.000000   0.000000
 
  0.2393160E+00  0.2393160E+00  0.0000000E+00  0.8333333E-02
    1      -15.390948    -15.196663   1.000000   1.000000
    2      -15.122647    -14.883990   1.000000   1.000000
    3       -8.337567     -7.404185   1.000000   1.000000
    4       -8.101669     -7.030868   1.000000   1.000000
    5       -7.560160     -6.449584   1.000000   1.000000
    6       -7.537612     -5.930669   1.000000   1.000000