    3    3    1    1
  0.1930832E+03  0.3752500E-09  0.3752500E-09  0.4750000E-08  0.5000000E-15
  1.000000000000000E-004
  CAR 
 NiI2                                    
     24    120     16
 
  0.0000000E+00  0.0000000E+00  0.0000000E+00  0.8333333E-02
    1      -17.906998   1.000000
    2      -16.807398   1.000000
    3       -8.802655   1.000000
    4       -6.669092   1.000000
    5       -6.669085   1.000000
    6       -5.523918   1.000000
    7       -5.065831   1.000000
    8       -5.065818   1.000000
    9       -4.769190   1.000000
   10       -4.244501   1.000000
   11       -4.244499   1.000000
   12       -2.645427   0.000000
   13       -2.645415   0.000000
   14        0.379558   0.000000
   15        0.952957   0.000000
   16        1.145668   0.000000
 
  0.8547000E-02  0.8547000E-02  0.0000000E+00  0.8333333E-02
    1      -17.904935   1.000000
    2      -16.806132   1.000000
    3       -8.800539   1.000000
    4       -6.676253   1.000000
    5       -6.668938   1.000000
    6       -5.518434   1.000000
    7       -5.070410   1.000000
    8       -5.069741   1.000000
    9       -4.775504   1.000000
   10       -4.249388   1.000000
   11       -4.244069   1.000000
   12       -2.657839   0.000000
   13       -2.647694   0.000000
   14        0.386431   0.000000
   15        0.956862   0.000000
   16        1.161175   0.000000
 
  0.1709400E-01  0.1709400E-01  0.0000000E+00  0.8333333E-02
    1      -17.898742   1.000000
    2      -16.802339   1.000000
    3       -8.794204   1.000000
    4       -6.697271   1.000000
    5       -6.668479   1.000000
    6       -5.502487   1.000000
    7       -5.084018   1.000000
    8       -5.082663   1.000000
    9       -4.793741   1.000000
   10       -4.262863   1.000000
   11       -4.242927   1.000000
   12       -2.693888   0.000000
   13       -2.654715   0.000000
   14        0.406634   0.000000
   15        0.967559   0.000000
   16        1.207626   0.000000
 
  0.2564100E-01  0.2564100E-01  0.0000000E+00  0.8333333E-02
    1      -17.888440   1.000000
    2      -16.796045   1.000000
    3       -8.783690   1.000000
    4       -6.730943   1.000000
    5       -6.667774   1.000000
    6       -5.477472   1.000000
    7       -5.108295   1.000000
    8       -5.106387   1.000000
    9       -4.821266   1.000000
   10       -4.281881   1.000000
   11       -4.241526   1.000000
   12       -2.750297   0.000000
   13       -2.666970   0.000000
   14        0.439020   0.000000
   15        0.983333   0.000000
   16        1.285071   0.000000
 
  0.3418800E-01  0.3418800E-01  0.0000000E+00  0.8333333E-02
    1      -17.874065   1.000000
    2      -16.787291   1.000000
    3       -8.769067   1.000000
    4       -6.775605   1.000000
    5       -6.666911   1.000000
    6       -5.445362   1.000000
    7       -5.152864   1.000000
    8       -5.137108   1.000000
    9       -4.852575   1.000000
   10       -4.302810   1.000000
   11       -4.240576   1.000000
   12       -2.822343   0.000000
   13       -2.685097   0.000000
   14        0.481949   0.000000
   15        1.003242   0.000000
   16        1.385621   0.000000
 
  0.4273500E-01  0.4273500E-01  0.0000000E+00  0.8333333E-02
    1      -17.855663   1.000000
    2      -16.776140   1.000000
    3       -8.750453   1.000000
    4       -6.829525   1.000000
    5       -6.666028   1.000000
    6       -5.408386   1.000000
    7       -5.222623   1.000000
    8       -5.175708   1.000000
    9       -4.880873   1.000000
   10       -4.322759   1.000000
   11       -4.240977   1.000000
   12       -2.904550   0.000000
   13       -2.709680   0.000000
   14        0.533599   0.000000
   15        1.027104   0.000000
   16        1.470485   0.000000
 
  0.5128200E-01  0.5128200E-01  0.0000000E+00  0.8333333E-02
    1      -17.833293   1.000000
    2      -16.762666   1.000000
    3       -8.727994   1.000000
    4       -6.891068   1.000000
    5       -6.665301   1.000000
    6       -5.368817   1.000000
    7       -5.319416   1.000000
    8       -5.221640   1.000000
    9       -4.902259   1.000000
   10       -4.340205   1.000000
   11       -4.243741   1.000000
   12       -2.991332   0.000000
   13       -2.741128   0.000000
   14        0.592252   0.000000
   15        1.054889   0.000000
   16        1.505301   0.000000
 
  0.5982900E-01  0.5982900E-01  0.0000000E+00  0.8333333E-02
    1      -17.807033   1.000000
    2      -16.746966   1.000000
    3       -8.701878   1.000000
    4       -6.958801   1.000000
    5       -6.664928   1.000000
    6       -5.439885   1.000000
    7       -5.328948   1.000000
    8       -5.274213   1.000000
    9       -4.916898   1.000000
   10       -4.354814   1.000000
   11       -4.249881   1.000000
   12       -3.077387   0.000008
   13       -2.779588   0.000000
   14        0.656496   0.000000
   15        1.086512   0.000000
   16        1.546335   0.000000
 
  0.6837600E-01  0.6837600E-01  0.0000000E+00  0.8333333E-02
    1      -17.776971   1.000000
    2      -16.729155   1.000000
    3       -8.672357   1.000000
    4       -7.031572   1.000000
    5       -6.665190   1.000000
    6       -5.578585   1.000000
    7       -5.333526   1.000000
    8       -5.290279   1.000000
    9       -4.926621   1.000000
   10       -4.366982   1.000000
   11       -4.260262   1.000000
   12       -3.157996   0.021507
   13       -2.824938   0.000000
   14        0.725301   0.000000
   15        1.121766   0.000000
   16        1.593560   0.000000
 
  0.7692300E-01  0.7692300E-01  0.0000000E+00  0.8333333E-02
    1      -17.743207   1.000000
    2      -16.709360   1.000000
    3       -8.639750   1.000000
    4       -7.108375   1.000000
    5       -6.666375   1.000000
    6       -5.730277   1.000000
    7       -5.397721   1.000000
    8       -5.256189   1.000000
    9       -4.933059   1.000000
   10       -4.377343   1.000000
   11       -4.275336   1.000000
   12       -3.229240   0.496617
   13       -2.876774   0.000000
   14        0.798010   0.000000
   15        1.160300   0.000000
   16        1.646965   0.000000
 
  0.8547000E-01  0.8547000E-01  0.0000000E+00  0.8333333E-02
    1      -17.705864   1.000000
    2      -16.687728   1.000000
    3       -8.604459   1.000000
    4       -7.188414   1.000000
    5       -6.668861   1.000000
    6       -5.890524   1.000000
    7       -5.466893   1.000000
    8       -5.228102   1.000000
    9       -4.937296   1.000000
   10       -4.386599   1.000000
   11       -4.294898   1.000000
   12       -3.288285   0.951700
   13       -2.934456   0.000000
   14        0.874263   0.000000
   15        1.201615   0.000000
   16        1.706531   0.000000
 
  0.9401700E-01  0.9401700E-01  0.0000000E+00  0.8333333E-02
    1      -17.665089   1.000000
    2      -16.664430   1.000000
    3       -8.567016   1.000000
    4       -7.270950   1.000000
    5       -6.673053   1.000000
    6       -6.055579   1.000000
    7       -5.540165   1.000000
    8       -5.208353   1.000000
    9       -4.939986   1.000000
   10       -4.395381   1.000000
   11       -4.317845   1.000000
   12       -3.333556   0.998370
   13       -2.997117   0.000000
   14        0.953894   0.000000
   15        1.245049   0.000000
   16        1.772218   0.000000
 
  0.1025640E+00  0.1025640E+00  0.0000000E+00  0.8333333E-02
    1      -17.621037   1.000000
    2      -16.639649   1.000000
    3       -8.528109   1.000000
    4       -7.355340   1.000000
    5       -6.679480   1.000000
    6       -6.222150   1.000000
    7       -5.616726   1.000000
    8       -5.199038   1.000000
    9       -4.941497   1.000000
   10       -4.404300   1.000000
   11       -4.342298   1.000000
   12       -3.364764   0.999935
   13       -3.063702   0.000001
   14        1.036817   0.000000
   15        1.289746   0.000000
   16        1.843329   0.000000
 
  0.1111110E+00  0.1111110E+00  0.0000000E+00  0.8333333E-02
    1      -17.573879   1.000000
    2      -16.613587   1.000000
    3       -8.488645   1.000000
    4       -7.440950   1.000000
    5       -6.688912   1.000000
    6       -6.387034   1.000000
    7       -5.695755   1.000000
    8       -5.201852   1.000000
    9       -4.942039   1.000000
   10       -4.413887   1.000000
   11       -4.365998   1.000000
   12       -3.382692   0.999993
   13       -3.132994   0.003160
   14        1.122867   0.000000
   15        1.334637   0.000000
   16        1.916248   0.000000
 
  0.1196580E+00  0.1196580E+00  0.0000000E+00  0.8333333E-02
    1      -17.523810   1.000000
    2      -16.586467   1.000000
    3       -8.449836   1.000000
    4       -7.527148   1.000000
    5       -6.703291   1.000000
    6       -6.545974   1.000000
    7       -5.776409   1.000000
    8       -5.217743   1.000000
    9       -4.941697   1.000000
   10       -4.424642   1.000000
   11       -4.386952   1.000000
   12       -3.388821   0.999997
   13       -3.203646   0.231966
   14        1.211494   0.000000
   15        1.378432   0.000000
   16        1.680034   0.000000
 
  0.1282050E+00  0.1282050E+00  0.0000000E+00  0.8333333E-02
    1      -17.471052   1.000000
    2      -16.558526   1.000000
    3       -8.413317   1.000000
    4       -7.613290   1.000000
    5       -6.740587   1.000000
    6       -6.678584   1.000000
    7       -5.857889   1.000000
    8       -5.246661   1.000000
    9       -4.940478   1.000000
   10       -4.437009   1.000000
   11       -4.404017   1.000000
   12       -3.384965   0.999994
   13       -3.274235   0.896914
   14        1.300742   0.000000
   15        1.419646   0.000000
   16        1.620068   0.000000
 
  0.1367520E+00  0.1367520E+00  0.0000000E+00  0.8333333E-02
    1      -17.415839   1.000000
    2      -16.530018   1.000000
    3       -8.381284   1.000000
    4       -7.698695   1.000000
    5       -6.860326   1.000000
    6       -6.722637   1.000000
    7       -5.939453   1.000000
    8       -5.287563   1.000000
    9       -4.938356   1.000000
   10       -4.451398   1.000000
   11       -4.417073   1.000000
   12       -3.373026   0.999975
   13       -3.343311   0.999354
   14        1.382120   0.000000
   15        1.456688   0.000000
   16        1.577559   0.000000
 
  0.1452990E+00  0.1452990E+00  0.0000000E+00  0.8333333E-02
    1      -17.358439   1.000000
    2      -16.501208   1.000000
    3       -8.356630   1.000000
    4       -7.782647   1.000000
    5       -6.988880   1.000000
    6       -6.748536   1.000000
    7       -6.020461   1.000000
    8       -5.338718   1.000000
    9       -4.935254   1.000000
   10       -4.468142   1.000000
   11       -4.426761   1.000000
   12       -3.409475   1.000000
   13       -3.354863   0.999803
   14        1.420146   0.000000
   15        1.488044   0.000000
   16        1.586254   0.000000
 
  0.1538460E+00  0.1538460E+00  0.0000000E+00  0.8333333E-02
    1      -17.299141   1.000000
    2      -16.472375   1.000000
    3       -8.342924   1.000000
    4       -7.864420   1.000000
    5       -7.102105   1.000000
    6       -6.776632   1.000000
    7       -6.100406   1.000000
    8       -5.398115   1.000000
    9       -4.931056   1.000000
   10       -4.487439   1.000000
   11       -4.434120   1.000000
   12       -3.471456   1.000000
   13       -3.332257   0.998165
   14        1.396174   0.000000
   15        1.512561   0.000000
   16        1.664182   0.000000
 
  0.1623930E+00  0.1623930E+00  0.0000000E+00  0.8333333E-02
    1      -17.238250   1.000000
    2      -16.443809   1.000000
    3       -8.344000   1.000000
    4       -7.943274   1.000000
    5       -7.194402   1.000000
    6       -6.808543   1.000000
    7       -6.178888   1.000000
    8       -5.463776   1.000000
    9       -4.925639   1.000000
   10       -4.509353   1.000000
   11       -4.440201   1.000000
   12       -3.528186   1.000000
   13       -3.306894   0.985661
   14        1.351875   0.000000
   15        1.529770   0.000000
   16        1.768870   0.000000
 
  0.1709400E+00  0.1709400E+00  0.0000000E+00  0.8333333E-02
    1      -17.176095   1.000000
    2      -16.415803   1.000000
    3       -8.362898   1.000000
    4       -8.018445   1.000000
    5       -7.262628   1.000000
    6       -6.844251   1.000000
    7       -6.255632   1.000000
    8       -5.533941   1.000000
    9       -4.918872   1.000000
   10       -4.533754   1.000000
   11       -4.445818   1.000000
   12       -3.578878   1.000000
   13       -3.280378   0.924770
   14        1.302604   0.000000
   15        1.540124   0.000000
   16        1.884088   0.000000
 
  0.1794870E+00  0.1794870E+00  0.0000000E+00  0.8333333E-02
    1      -17.113036   1.000000
    2      -16.388657   1.000000
    3       -8.400414   1.000000
    4       -8.089211   1.000000
    5       -7.306698   1.000000
    6       -6.882910   1.000000
    7       -6.330511   1.000000
    8       -5.607106   1.000000
    9       -4.910643   1.000000
   10       -4.560323   1.000000
   11       -4.451583   1.000000
   12       -3.623062   1.000000
   13       -3.254232   0.757535
   14        1.251232   0.000000
   15        1.545057   0.000000
   16        2.006268   0.000000
 
  0.1880340E+00  0.1880340E+00  0.0000000E+00  0.8333333E-02
    1      -17.049459   1.000000
    2      -16.362671   1.000000
    3       -8.454356   1.000000
    4       -8.154879   1.000000
    5       -7.330583   1.000000
    6       -6.922552   1.000000
    7       -6.403516   1.000000
    8       -5.682004   1.000000
    9       -4.900853   1.000000
   10       -4.588553   1.000000
   11       -4.457867   1.000000
   12       -3.660594   1.000000
   13       -3.229888   0.503926
   14        1.198305   0.000000
   15        1.546807   0.000000
   16        2.134301   0.000000
 
  0.1965810E+00  0.1965810E+00  0.0000000E+00  0.8333333E-02
    1      -16.985770   1.000000
    2      -16.338131   1.000000
    3       -8.520231   1.000000
    4       -8.214768   1.000000
    5       -7.342207   1.000000
    6       -6.959436   1.000000
    7       -6.474664   1.000000
    8       -5.757522   1.000000
    9       -4.889432   1.000000
   10       -4.617805   1.000000
   11       -4.464810   1.000000
   12       -3.691585   1.000000
   13       -3.208641   0.277220
   14        1.143969   0.000000
   15        1.548092   0.000000
   16        2.267692   0.000000
 
  0.2051280E+00  0.2051280E+00  0.0000000E+00  0.8333333E-02
    1      -16.922382   1.000000
    2      -16.315314   1.000000
    3       -8.592853   1.000000
    4       -8.268290   1.000000
    5       -7.352516   1.000000
    6       -6.987448   1.000000
    7       -6.544091   1.000000
    8       -5.832694   1.000000
    9       -4.876369   1.000000
   10       -4.647391   1.000000
   11       -4.472436   1.000000
   12       -3.716350   1.000000
   13       -3.191638   0.141854
   14        1.088431   0.000000
   15        1.551754   0.000000
   16        2.406094   0.000000
 
  0.2136750E+00  0.2136750E+00  0.0000000E+00  0.8333333E-02
    1      -16.859725   1.000000
    2      -16.294474   1.000000
    3       -8.667491   1.000000
    4       -8.314933   1.000000
    5       -7.373100   1.000000
    6       -6.999245   1.000000
    7       -6.611981   1.000000
    8       -5.906630   1.000000
    9       -4.861711   1.000000
   10       -4.676535   1.000000
   11       -4.480700   1.000000
   12       -3.735314   1.000000
   13       -3.179853   0.079956
   14        1.032083   0.000000
   15        1.560475   0.000000
   16        2.549112   0.000000
 
  0.2222220E+00  0.2222220E+00  0.0000000E+00  0.8333333E-02
    1      -16.798247   1.000000
    2      -16.275857   1.000000
    3       -8.740370   1.000000
    4       -8.354280   1.000000
    5       -7.411175   1.000000
    6       -6.990897   1.000000
    7       -6.678530   1.000000
    8       -5.978545   1.000000
    9       -4.845657   1.000000
   10       -4.704535   1.000000
   11       -4.489506   1.000000
   12       -3.748934   1.000000
   13       -3.174039   0.058231
   14        0.975509   0.000000
   15        1.576578   0.000000
   16        2.696145   0.000000
 
  0.2307690E+00  0.2307690E+00  0.0000000E+00  0.8333333E-02
    1      -16.738386   1.000000
    2      -16.259660   1.000000
    3       -8.808618   1.000000
    4       -8.386021   1.000000
    5       -7.466510   1.000000
    6       -6.964921   1.000000
    7       -6.743879   1.000000
    8       -6.047695   1.000000
    9       -4.828639   1.000000
   10       -4.730527   1.000000
   11       -4.498676   1.000000
   12       -3.757623   1.000000
   13       -3.174699   0.060434
   14        0.919459   0.000000
   15        1.601923   0.000000
   16        2.846067   0.000000
 
  0.2393160E+00  0.2393160E+00  0.0000000E+00  0.8333333E-02
    1      -16.680596   1.000000
    2      -16.246058   1.000000
    3       -8.870147   1.000000
    4       -8.409986   1.000000
    5       -7.534853   1.000000
    6       -6.927095   1.000000
    7       -6.808148   1.000000
    8       -6.113446   1.000000
    9       -4.812094   1.000000
   10       -4.752922   1.000000
   11       -4.508106   1.000000
   12       -3.761740   1.000000
   13       -3.182088   0.089774
   14        0.864778   0.000000
   15        1.637865   0.000000
   16        2.996276   0.000000
 
  0.2478630E+00  0.2478630E+00  0.0000000E+00  0.8333333E-02
    1      -16.625306   1.000000
    2      -16.235184   1.000000
    3       -8.923415   1.000000
    4       -8.426147   1.000000
    5       -7.611930   1.000000
    6       -6.882667   1.000000
    7       -6.871319   1.000000
    8       -6.175226   1.000000
    9       -4.802690   1.000000
   10       -4.764963   1.000000
   11       -4.517623   1.000000
   12       -3.761546   1.000000
   13       -3.196180   0.172701
   14        0.812357   0.000000
   15        1.685254   0.000000
   16        3.139226   0.000000
 
  0.2564100E+00  0.2564100E+00  0.0000000E+00  0.8333333E-02
    1      -16.572912   1.000000
    2      -16.227132   1.000000
    3       -8.967351   1.000000
    4       -8.434662   1.000000
    5       -7.694514   1.000000
    6       -6.933255   1.000000
    7       -6.835404   1.000000
    8       -6.232619   1.000000
    9       -4.811332   1.000000
   10       -4.755876   1.000000
   11       -4.527127   1.000000
   12       -3.757234   1.000000
   13       -3.216706   0.358299
   14        0.763075   0.000000
   15        1.744440   0.000000
   16        3.247557   0.000000
 
  0.2649570E+00  0.2649570E+00  0.0000000E+00  0.8333333E-02
    1      -16.523776   1.000000
    2      -16.221938   1.000000
    3       -9.001237   1.000000
    4       -8.435861   1.000000
    5       -7.780210   1.000000
    6       -6.993600   1.000000
    7       -6.787885   1.000000
    8       -6.285276   1.000000
    9       -4.826603   1.000000
   10       -4.737288   1.000000
   11       -4.536480   1.000000
   12       -3.748912   1.000000
   13       -3.243144   0.649798
   14        0.717760   0.000000
   15        1.815305   0.000000
   16        3.260336   0.000000
 
  0.2735040E+00  0.2735040E+00  0.0000000E+00  0.8333333E-02
    1      -16.478228   1.000000
    2      -16.219599   1.000000
    3       -9.024738   1.000000
    4       -8.430334   1.000000
    5       -7.867078   1.000000
    6       -7.051808   1.000000
    7       -6.741930   1.000000
    8       -6.333023   1.000000
    9       -4.841294   1.000000
   10       -4.716778   1.000000
   11       -4.545621   1.000000
   12       -3.736661   1.000000
   13       -3.274788   0.899696
   14        0.677145   0.000000
   15        1.897258   0.000000
   16        3.191484   0.000000
 
  0.2820510E+00  0.2820510E+00  0.0000000E+00  0.8333333E-02
    1      -16.436536   1.000000
    2      -16.220071   1.000000
    3       -9.037900   1.000000
    4       -8.418939   1.000000
    5       -7.953349   1.000000
    6       -7.107067   1.000000
    7       -6.698852   1.000000
    8       -6.375804   1.000000
    9       -4.854028   1.000000
   10       -4.696161   1.000000
   11       -4.554501   1.000000
   12       -3.720547   1.000000
   13       -3.310750   0.989190
   14        0.641842   0.000000
   15        1.989215   0.000000
   16        3.099412   0.000000
 
  0.2905980E+00  0.2905980E+00  0.0000000E+00  0.8333333E-02
    1      -16.398912   1.000000
    2      -16.223254   1.000000
    3       -9.041233   1.000000
    4       -8.402823   1.000000
    5       -8.037172   1.000000
    6       -7.158273   1.000000
    7       -6.659549   1.000000
    8       -6.413628   1.000000
    9       -4.864507   1.000000
   10       -4.676251   1.000000
   11       -4.563106   1.000000
   12       -3.700653   1.000000
   13       -3.350000   0.999672
   14        0.612320   0.000000
   15        2.089520   0.000000
   16        3.002926   0.000000
 
  0.2991450E+00  0.2991450E+00  0.0000000E+00  0.8333333E-02
    1      -16.365491   1.000000
    2      -16.229011   1.000000
    3       -9.035869   1.000000
    4       -8.383480   1.000000
    5       -8.116408   1.000000
    6       -7.204051   1.000000
    7       -6.624656   1.000000
    8       -6.446586   1.000000
    9       -4.872695   1.000000
   10       -4.657629   1.000000
   11       -4.571426   1.000000
   12       -3.677127   1.000000
   13       -3.391402   0.999998
   14        0.588858   0.000000
   15        2.195757   0.000000
   16        2.907949   0.000000
 
  0.3076920E+00  0.3076920E+00  0.0000000E+00  0.8333333E-02
    1      -16.336331   1.000000
    2      -16.237174   1.000000
    3       -9.023851   1.000000
    4       -8.362787   1.000000
    5       -8.188281   1.000000
    6       -7.242766   1.000000
    7       -6.594556   1.000000
    8       -6.474870   1.000000
    9       -4.878685   1.000000
   10       -4.640780   1.000000
   11       -4.579564   1.000000
   12       -3.650223   1.000000
   13       -3.433750   1.000000
   14        0.571508   0.000000
   15        2.304432   0.000000
   16        2.817094   0.000000
 
  0.3162390E+00  0.3162390E+00  0.0000000E+00  0.8333333E-02
    1      -16.311414   1.000000
    2      -16.247535   1.000000
    3       -9.008494   1.000000
    4       -8.342906   1.000000
    5       -8.248958   1.000000
    6       -7.272553   1.000000
    7       -6.569379   1.000000
    8       -6.498641   1.000000
    9       -4.882661   1.000000
   10       -4.626034   1.000000
   11       -4.587580   1.000000
   12       -3.620283   1.000000
   13       -3.475750   1.000000
   14        0.560056   0.000000
   15        2.410490   0.000000
   16        2.731984   0.000000
 
  0.3247860E+00  0.3247860E+00  0.0000000E+00  0.8333333E-02
    1      -16.290657   1.000000
    2      -16.259863   1.000000
    3       -8.994738   1.000000
    4       -8.326169   1.000000
    5       -8.293215   1.000000
    6       -7.291533   1.000000
    7       -6.549087   1.000000
    8       -6.518106   1.000000
    9       -4.884836   1.000000
   10       -4.613687   1.000000
   11       -4.595637   1.000000
   12       -3.587792   1.000000
   13       -3.516069   1.000000
   14        0.553941   0.000000
   15        2.506802   0.000000
   16        2.653946   0.000000
 
  0.3333330E+00  0.3333330E+00  0.0000000E+00  0.8333333E-02
    1      -16.273924   1.000000
    2      -16.273889   1.000000
    3       -8.988780   1.000000
    4       -8.314754   1.000000
    5       -8.314747   1.000000
    6       -7.298115   1.000000
    7       -6.533483   1.000000
    8       -6.533457   1.000000
    9       -4.885497   1.000000
   10       -4.603922   1.000000
   11       -4.603899   1.000000
   12       -3.553322   1.000000
   13       -3.553319   1.000000
   14        0.552197   0.000000
   15        2.584295   0.000000
   16        2.584334   0.000000
 
  0.3333330E+00  0.3333330E+00  0.0000000E+00  0.8333333E-02
    1      -16.273924   1.000000
    2      -16.273889   1.000000
    3       -8.988780   1.000000
    4       -8.314754   1.000000
    5       -8.314747   1.000000
    6       -7.298115   1.000000
    7       -6.533483   1.000000
    8       -6.533457   1.000000
    9       -4.885497   1.000000
   10       -4.603922   1.000000
   11       -4.603899   1.000000
   12       -3.553322   1.000000
   13       -3.553319   1.000000
   14        0.552197   0.000000
   15        2.584295   0.000000
   16        2.584334   0.000000
 
  0.3376065E+00  0.3247860E+00  0.0000000E+00  0.8333333E-02
    1      -16.281489   1.000000
    2      -16.266969   1.000000
    3       -8.990569   1.000000
    4       -8.315183   1.000000
    5       -8.311583   1.000000
    6       -7.296432   1.000000
    7       -6.539672   1.000000
    8       -6.527319   1.000000
    9       -4.885346   1.000000
   10       -4.608197   1.000000
   11       -4.600014   1.000000
   12       -3.570351   1.000000
   13       -3.535547   1.000000
   14        0.552530   0.000000
   15        2.553102   0.000000
   16        2.613146   0.000000
 
  0.3418800E+00  0.3162390E+00  0.0000000E+00  0.8333333E-02
    1      -16.289400   1.000000
    2      -16.260949   1.000000
    3       -8.996174   1.000000
    4       -8.310297   1.000000
    5       -8.308124   1.000000
    6       -7.291383   1.000000
    7       -6.544921   1.000000
    8       -6.522204   1.000000
    9       -4.884942   1.000000
   10       -4.612637   1.000000
   11       -4.596786   1.000000
   12       -3.586082   1.000000
   13       -3.517532   1.000000
   14        0.553367   0.000000
   15        2.524556   0.000000
   16        2.634232   0.000000
 
  0.3461535E+00  0.3076920E+00  0.0000000E+00  0.8333333E-02
    1      -16.297602   1.000000
    2      -16.255808   1.000000
    3       -9.005705   1.000000
    4       -8.310958   1.000000
    5       -8.293493   1.000000
    6       -7.283010   1.000000
    7       -6.549238   1.000000
    8       -6.518065   1.000000
    9       -4.884317   1.000000
   10       -4.617238   1.000000
   11       -4.594214   1.000000
   12       -3.600332   1.000000
   13       -3.499359   1.000000
   14        0.554441   0.000000
   15        2.498903   0.000000
   16        2.647234   0.000000
 
  0.3504271E+00  0.2991450E+00  0.0000000E+00  0.8333333E-02
    1      -16.306059   1.000000
    2      -16.251509   1.000000
    3       -9.018988   1.000000
    4       -8.313573   1.000000
    5       -8.271514   1.000000
    6       -7.271438   1.000000
    7       -6.552652   1.000000
    8       -6.514834   1.000000
    9       -4.883511   1.000000
   10       -4.622047   1.000000
   11       -4.592308   1.000000
   12       -3.612933   1.000000
   13       -3.481118   1.000000
   14        0.555445   0.000000
   15        2.476378   0.000000
   16        2.652308   0.000000
 
  0.3547006E+00  0.2905980E+00  0.0000000E+00  0.8333333E-02
    1      -16.314737   1.000000
    2      -16.248009   1.000000
    3       -9.035627   1.000000
    4       -8.318085   1.000000
    5       -8.242646   1.000000
    6       -7.256857   1.000000
    7       -6.555184   1.000000
    8       -6.512465   1.000000
    9       -4.882581   1.000000
   10       -4.627092   1.000000
   11       -4.591072   1.000000
   12       -3.623713   1.000000
   13       -3.462898   1.000000
   14        0.556038   0.000000
   15        2.457235   0.000000
   16        2.650049   0.000000
 
  0.3589741E+00  0.2820510E+00  0.0000000E+00  0.8333333E-02
    1      -16.323602   1.000000
    2      -16.245268   1.000000
    3       -9.055101   1.000000
    4       -8.324386   1.000000
    5       -8.207476   1.000000
    6       -7.239508   1.000000
    7       -6.556854   1.000000
    8       -6.510871   1.000000
    9       -4.881570   1.000000
   10       -4.632390   1.000000
   11       -4.590480   1.000000
   12       -3.632503   1.000000
   13       -3.444780   1.000000
   14        0.555851   0.000000
   15        2.441741   0.000000
   16        2.641350   0.000000
 
  0.3632476E+00  0.2735040E+00  0.0000000E+00  0.8333333E-02
    1      -16.332616   1.000000
    2      -16.243240   1.000000
    3       -9.076848   1.000000
    4       -8.332330   1.000000
    5       -8.166643   1.000000
    6       -7.219680   1.000000
    7       -6.557688   1.000000
    8       -6.509986   1.000000
    9       -4.880521   1.000000
   10       -4.637956   1.000000
   11       -4.590528   1.000000
   12       -3.639145   1.000000
   13       -3.426843   1.000000
   14        0.554484   0.000000
   15        2.430169   0.000000
   16        2.627241   0.000000
 
  0.3675211E+00  0.2649570E+00  0.0000000E+00  0.8333333E-02
    1      -16.341747   1.000000
    2      -16.241879   1.000000
    3       -9.100337   1.000000
    4       -8.341743   1.000000
    5       -8.120766   1.000000
    6       -7.197700   1.000000
    7       -6.557700   1.000000
    8       -6.509725   1.000000
    9       -4.879466   1.000000
   10       -4.643804   1.000000
   11       -4.591194   1.000000
   12       -3.643489   1.000000
   13       -3.409163   1.000000
   14        0.551519   0.000000
   15        2.422795   0.000000
   16        2.608746   0.000000
 
  0.3717946E+00  0.2564100E+00  0.0000000E+00  0.8333333E-02
    1      -16.350959   1.000000
    2      -16.241140   1.000000
    3       -9.125084   1.000000
    4       -8.352438   1.000000
    5       -8.070432   1.000000
    6       -7.173908   1.000000
    7       -6.556930   1.000000
    8       -6.510018   1.000000
    9       -4.878463   1.000000
   10       -4.649943   1.000000
   11       -4.592464   1.000000
   12       -3.645404   1.000000
   13       -3.391810   0.999998
   14        0.546531   0.000000
   15        2.419884   0.000000
   16        2.586804   0.000000
 
  0.3760681E+00  0.2478630E+00  0.0000000E+00  0.8333333E-02
    1      -16.360219   1.000000
    2      -16.240976   1.000000
    3       -9.150682   1.000000
    4       -8.364222   1.000000
    5       -8.016163   1.000000