    3    3    1    1
  0.2252027E+03  0.3950000E-09  0.3950000E-09  0.5000000E-08  0.5000000E-15
  1.000000000000000E-004
  CAR 
 NiI2                                    
     24    120     16
