    3    3    1    1
  0.2252027E+03  0.3950000E-09  0.3950000E-09  0.5000000E-08  0.5000000E-15
  1.000000000000000E-004
  CAR 
 NiI2                                    
     24    120     16
 
  0.0000000E+00  0.0000000E+00  0.0000000E+00  0.8333333E-02
    1      -17.464683   1.000000
    2      -16.707432   1.000000
    3       -8.490062   1.000000
    4       -6.586324   1.000000
    5       -6.586317   1.000000
    6       -5.699201   1.000000
    7       -5.140281   1.000000
    8       -5.140233   1.000000
    9       -4.940408   1.000000
   10       -4.783956   1.000000
   11       -4.783952   1.000000
   12       -3.384231   0.000000
   13       -3.384210   0.000000
   14       -0.288885   0.000000
   15        0.578301   0.000000
   16        0.796396   0.000000
 
  0.8547000E-02  0.8547000E-02  0.0000000E+00  0.8333333E-02
    1      -17.463163   1.000000
    2      -16.706538   1.000000
    3       -8.488424   1.000000
    4       -6.592341   1.000000
    5       -6.586293   1.000000
    6       -5.694793   1.000000
    7       -5.146473   1.000000
    8       -5.146197   1.000000
    9       -4.954573   1.000000
   10       -4.780781   1.000000
   11       -4.775656   1.000000
   12       -3.392871   0.000000
   13       -3.385770   0.000000
   14       -0.279993   0.000000
   15        0.591550   0.000000
   16        0.798896   0.000000
 
  0.1709400E-01  0.1709400E-01  0.0000000E+00  0.8333333E-02
    1      -17.458601   1.000000
    2      -16.703861   1.000000
    3       -8.483527   1.000000
    4       -6.609988   1.000000
    5       -6.586193   1.000000
    6       -5.682031   1.000000
    7       -5.167378   1.000000
    8       -5.164368   1.000000
    9       -4.986165   1.000000
   10       -4.771949   1.000000
   11       -4.757838   1.000000
   12       -3.418086   0.000000
   13       -3.390544   0.000000
   14       -0.253773   0.000000
   15        0.630275   0.000000
   16        0.806617   0.000000
 
  0.2564100E-01  0.2564100E-01  0.0000000E+00  0.8333333E-02
    1      -17.451017   1.000000
    2      -16.699423   1.000000
    3       -8.475413   1.000000
    4       -6.638188   1.000000
    5       -6.586084   1.000000
    6       -5.662164   1.000000
    7       -5.211944   1.000000
    8       -5.192372   1.000000
    9       -5.016877   1.000000
   10       -4.759153   1.000000
   11       -4.739200   1.000000
   12       -3.457930   0.000000
   13       -3.398817   0.000000
   14       -0.211524   0.000000
   15        0.691086   0.000000
   16        0.820706   0.000000
 
  0.3418800E-01  0.3418800E-01  0.0000000E+00  0.8333333E-02
    1      -17.440445   1.000000
    2      -16.693258   1.000000
    3       -8.464172   1.000000
    4       -6.675516   1.000000
    5       -6.586045   1.000000
    6       -5.636939   1.000000
    7       -5.284044   1.000000
    8       -5.228738   1.000000
    9       -5.037091   1.000000
   10       -4.744330   1.000000
   11       -4.723060   1.000000
   12       -3.509474   0.000000
   13       -3.410957   0.000000
   14       -0.155218   0.000000
   15        0.764659   0.000000
   16        0.847043   0.000000
 
  0.4273500E-01  0.4273500E-01  0.0000000E+00  0.8333333E-02
    1      -17.426930   1.000000
    2      -16.685415   1.000000
    3       -8.449923   1.000000
    4       -6.720425   1.000000
    5       -6.586169   1.000000
    6       -5.608298   1.000000
    7       -5.378962   1.000000
    8       -5.271955   1.000000
    9       -5.048249   1.000000
   10       -4.729182   1.000000
   11       -4.710043   1.000000
   12       -3.569160   0.000000
   13       -3.427310   0.000000
   14       -0.087260   0.000000
   15        0.822131   0.000000
   16        0.910557   0.000000
 
  0.5128200E-01  0.5128200E-01  0.0000000E+00  0.8333333E-02
    1      -17.410524   1.000000
    2      -16.675953   1.000000
    3       -8.432828   1.000000
    4       -6.771520   1.000000
    5       -6.586607   1.000000
    6       -5.578186   1.000000
    7       -5.490190   1.000000
    8       -5.320893   1.000000
    9       -5.054265   1.000000
   10       -4.715073   1.000000
   11       -4.699923   1.000000
   12       -3.633175   0.000007
   13       -3.448139   0.000000
   14       -0.010230   0.000000
   15        0.855587   0.000000
   16        1.014822   0.000000
 
  0.5982900E-01  0.5982900E-01  0.0000000E+00  0.8333333E-02
    1      -17.391301   1.000000
    2      -16.664947   1.000000
    3       -8.413109   1.000000
    4       -6.827604   1.000000
    5       -6.587501   1.000000
    6       -5.612865   1.000000
    7       -5.548481   1.000000
    8       -5.374716   1.000000
    9       -5.057541   1.000000
   10       -4.703066   1.000000
   11       -4.692293   1.000000
   12       -3.697680   0.005759
   13       -3.473534   0.000000
   14        0.073345   0.000000
   15        0.885058   0.000000
   16        1.146350   0.000000
 
  0.6837600E-01  0.6837600E-01  0.0000000E+00  0.8333333E-02
    1      -17.369341   1.000000
    2      -16.652485   1.000000
    3       -8.391039   1.000000
    4       -6.887706   1.000000
    5       -6.589070   1.000000
    6       -5.743506   1.000000
    7       -5.520972   1.000000
    8       -5.432782   1.000000
    9       -5.059276   1.000000
   10       -4.693957   1.000000
   11       -4.686788   1.000000
   12       -3.759124   0.215154
   13       -3.503458   0.000000
   14        0.161149   0.000000
   15        0.915745   0.000000
   16        1.258954   0.000000
 
  0.7692300E-01  0.7692300E-01  0.0000000E+00  0.8333333E-02
    1      -17.344739   1.000000
    2      -16.638665   1.000000
    3       -8.366970   1.000000
    4       -6.951014   1.000000
    5       -6.591537   1.000000
    6       -5.879263   1.000000
    7       -5.497419   1.000000
    8       -5.494447   1.000000
    9       -5.060033   1.000000
   10       -4.688254   1.000000
   11       -4.683129   1.000000
   12       -3.814345   0.780311
   13       -3.537684   0.000000
   14        0.251119   0.000000
   15        0.948444   0.000000
   16        1.218323   0.000000
 
  0.8547000E-01  0.8547000E-01  0.0000000E+00  0.8333333E-02
    1      -17.317606   1.000000
    2      -16.623606   1.000000
    3       -8.341352   1.000000
    4       -7.016858   1.000000
    5       -6.595177   1.000000
    6       -6.017684   1.000000
    7       -5.559328   1.000000
    8       -5.479314   1.000000
    9       -5.060121   1.000000
   10       -4.686090   1.000000
   11       -4.681157   1.000000
   12       -3.860861   0.981641
   13       -3.575851   0.000000
   14        0.341340   0.000000
   15        0.983010   0.000000
   16        1.176186   0.000000
 
  0.9401700E-01  0.9401700E-01  0.0000000E+00  0.8333333E-02
    1      -17.288063   1.000000
    2      -16.607434   1.000000
    3       -8.314746   1.000000
    4       -7.084643   1.000000
    5       -6.600310   1.000000
    6       -6.156489   1.000000
    7       -5.626647   1.000000
    8       -5.468312   1.000000
    9       -5.059680   1.000000
   10       -4.687121   1.000000
   11       -4.680798   1.000000
   12       -3.896998   0.999068
   13       -3.617437   0.000001
   14        0.429683   0.000000
   15        1.018951   0.000000
   16        1.122938   0.000000
 
  0.1025640E+00  0.1025640E+00  0.0000000E+00  0.8333333E-02
    1      -17.256261   1.000000
    2      -16.590287   1.000000
    3       -8.287871   1.000000
    4       -7.153840   1.000000
    5       -6.607341   1.000000
    6       -6.293480   1.000000
    7       -5.695887   1.000000
    8       -5.465623   1.000000
    9       -5.058797   1.000000
   10       -4.690561   1.000000
   11       -4.682056   1.000000
   12       -3.922108   0.999934
   13       -3.661804   0.000199
   14        0.512937   0.000000
   15        1.055560   0.000000
   16        1.068908   0.000000
 
  0.1111110E+00  0.1111110E+00  0.0000000E+00  0.8333333E-02
    1      -17.222350   1.000000
    2      -16.572316   1.000000
    3       -8.261645   1.000000
    4       -7.223933   1.000000
    5       -6.616903   1.000000
    6       -6.426263   1.000000
    7       -5.766404   1.000000
    8       -5.472100   1.000000
    9       -5.057492   1.000000
   10       -4.695310   1.000000
   11       -4.685004   1.000000
   12       -3.936443   0.999988
   13       -3.708185   0.012893
   14        0.584866   0.000000
   15        1.024538   0.000000
   16        1.091964   0.000000
 
  0.1196580E+00  0.1196580E+00  0.0000000E+00  0.8333333E-02
    1      -17.186491   1.000000
    2      -16.553680   1.000000
    3       -8.237216   1.000000
    4       -7.294390   1.000000
    5       -6.631275   1.000000
    6       -6.550761   1.000000
    7       -5.837564   1.000000
    8       -5.488062   1.000000
    9       -5.055756   1.000000
   10       -4.700264   1.000000
   11       -4.689743   1.000000
   12       -3.941002   0.999993
   13       -3.755714   0.188048
   14        0.633451   0.000000
   15        1.004770   0.000000
   16        1.127152   0.000000
 
  0.1282050E+00  0.1282050E+00  0.0000000E+00  0.8333333E-02
    1      -17.148869   1.000000
    2      -16.534549   1.000000
    3       -8.216019   1.000000
    4       -7.364681   1.000000
    5       -6.684991   1.000000
    6       -6.630553   1.000000
    7       -5.908761   1.000000
    8       -5.513238   1.000000
    9       -5.053563   1.000000
   10       -4.704633   1.000000
   11       -4.696412   1.000000
   12       -3.937235   0.999989
   13       -3.803459   0.679154
   14        0.645435   0.000000
   15        1.024814   0.000000
   16        1.160045   0.000000
 
  0.1367520E+00  0.1367520E+00  0.0000000E+00  0.8333333E-02
    1      -17.109690   1.000000
    2      -16.515106   1.000000
    3       -8.199782   1.000000
    4       -7.434251   1.000000
    5       -6.788350   1.000000
    6       -6.653296   1.000000
    7       -5.979462   1.000000
    8       -5.546849   1.000000
    9       -5.050864   1.000000
   10       -4.708045   1.000000
   11       -4.705135   1.000000
   12       -3.926776   0.999961
   13       -3.850451   0.963631
   14        0.623704   0.000000
   15        1.083001   0.000000
   16        1.189591   0.000000
 
  0.1452990E+00  0.1452990E+00  0.0000000E+00  0.8333333E-02
    1      -17.069162   1.000000
    2      -16.495535   1.000000
    3       -8.190465   1.000000
    4       -7.502525   1.000000
    5       -6.883695   1.000000
    6       -6.674496   1.000000
    7       -6.049201   1.000000
    8       -5.587762   1.000000
    9       -5.047606   1.000000
   10       -4.716013   1.000000
   11       -4.710498   1.000000
   12       -3.911247   0.999779
   13       -3.895738   0.998949
   14        0.583500   0.000000
   15        1.164849   0.000000
   16        1.214914   0.000000
 
  0.1538460E+00  0.1538460E+00  0.0000000E+00  0.8333333E-02
    1      -17.027522   1.000000
    2      -16.476033   1.000000
    3       -8.190037   1.000000
    4       -7.568907   1.000000
    5       -6.964696   1.000000
    6       -6.698387   1.000000
    7       -6.117604   1.000000
    8       -5.634708   1.000000
    9       -5.043707   1.000000
   10       -4.729119   1.000000
   11       -4.712309   1.000000
   12       -3.938431   0.999991
   13       -3.892198   0.998536
   14        0.535794   0.000000
   15        1.235481   0.000000
   16        1.259783   0.000000
 
  0.1623930E+00  0.1623930E+00  0.0000000E+00  0.8333333E-02
    1      -16.985011   1.000000
    2      -16.456789   1.000000
    3       -8.200088   1.000000
    4       -7.632783   1.000000
    5       -7.029281   1.000000
    6       -6.725363   1.000000
    7       -6.184420   1.000000
    8       -5.686405   1.000000
    9       -5.039070   1.000000
   10       -4.744381   1.000000
   11       -4.713794   1.000000
   12       -3.977758   1.000000
   13       -3.871044   0.991271
   14        0.485749   0.000000
   15        1.251253   0.000000
   16        1.362797   0.000000
 
  0.1709400E+00  0.1709400E+00  0.0000000E+00  0.8333333E-02
    1      -16.941881   1.000000
    2      -16.438003   1.000000
    3       -8.221304   1.000000
    4       -7.693550   1.000000
    5       -7.076946   1.000000
    6       -6.755172   1.000000
    7       -6.249492   1.000000
    8       -5.741654   1.000000
    9       -5.033611   1.000000
   10       -4.761613   1.000000
   11       -4.715293   1.000000
   12       -4.013125   1.000000
   13       -3.849081   0.960432
   14        0.435617   0.000000
   15        1.262773   0.000000
   16        1.471632   0.000000
 
  0.1794870E+00  0.1794870E+00  0.0000000E+00  0.8333333E-02
    1      -16.898397   1.000000
    2      -16.419867   1.000000
    3       -8.253098   1.000000
    4       -7.750637   1.000000
    5       -7.109064   1.000000
    6       -6.786998   1.000000
    7       -6.312790   1.000000
    8       -5.799394   1.000000
    9       -5.027287   1.000000
   10       -4.780526   1.000000
   11       -4.717094   1.000000
   12       -4.044169   1.000000
   13       -3.827488   0.873887
   14        0.386369   0.000000
   15        1.271132   0.000000
   16        1.585192   0.000000
 
  0.1880340E+00  0.1880340E+00  0.0000000E+00  0.8333333E-02
    1      -16.854834   1.000000
    2      -16.402570   1.000000
    3       -8.293627   1.000000
    4       -7.803474   1.000000
    5       -7.129110   1.000000
    6       -6.819096   1.000000
    7       -6.374335   1.000000
    8       -5.858650   1.000000
    9       -5.020010   1.000000
   10       -4.800682   1.000000
   11       -4.719351   1.000000
   12       -4.070714   1.000000
   13       -3.807295   0.716957
   14        0.338435   0.000000
   15        1.277859   0.000000
   16        1.702855   0.000000
 
  0.1965810E+00  0.1965810E+00  0.0000000E+00  0.8333333E-02
    1      -16.811479   1.000000
    2      -16.386295   1.000000
    3       -8.340217   1.000000
    4       -7.851551   1.000000
    5       -7.142709   1.000000
    6       -6.848360   1.000000
    7       -6.434239   1.000000
    8       -5.918555   1.000000
    9       -5.011730   1.000000
   10       -4.821557   1.000000
   11       -4.722158   1.000000
   12       -4.092769   1.000000
   13       -3.789429   0.527310
   14        0.292014   0.000000
   15        1.284742   0.000000
   16        1.824159   0.000000
 
  0.2051280E+00  0.2051280E+00  0.0000000E+00  0.8333333E-02
    1      -16.768620   1.000000
    2      -16.371217   1.000000
    3       -8.389945   1.000000
    4       -7.894411   1.000000
    5       -7.157325   1.000000
    6       -6.870063   1.000000
    7       -6.492665   1.000000
    8       -5.978311   1.000000
    9       -5.002444   1.000000
   10       -4.842580   1.000000
   11       -4.725543   1.000000
   12       -4.110501   1.000000
   13       -3.774662   0.363481
   14        0.247238   0.000000
   15        1.293641   0.000000
   16        1.948622   0.000000
 
  0.2136750E+00  0.2136750E+00  0.0000000E+00  0.8333333E-02
    1      -16.726547   1.000000
    2      -16.357492   1.000000
    3       -8.440075   1.000000
    4       -7.931669   1.000000
    5       -7.180515   1.000000
    6       -6.879123   1.000000
    7       -6.549830   1.000000
    8       -6.037180   1.000000
    9       -4.992204   1.000000
   10       -4.863165   1.000000
   11       -4.729489   1.000000
   12       -4.124152   1.000000
   13       -3.763658   0.254500
   14        0.204244   0.000000
   15        1.306327   0.000000
   16        2.075572   0.000000
 
  0.2222220E+00  0.2222220E+00  0.0000000E+00  0.8333333E-02
    1      -16.685537   1.000000
    2      -16.345265   1.000000
    3       -8.488279   1.000000
    4       -7.963029   1.000000
    5       -7.216465   1.000000
    6       -6.873394   1.000000
    7       -6.605930   1.000000
    8       -6.094474   1.000000
    9       -4.981186   1.000000
   10       -4.882712   1.000000
   11       -4.733940   1.000000
   12       -4.134004   1.000000
   13       -3.756902   0.197244
   14        0.163218   0.000000
   15        1.324371   0.000000
   16        2.203883   0.000000
 
  0.2307690E+00  0.2307690E+00  0.0000000E+00  0.8333333E-02
    1      -16.645868   1.000000
    2      -16.334656   1.000000
    3       -8.532685   1.000000
    4       -7.988246   1.000000
    5       -7.264571   1.000000
    6       -6.855000   1.000000
    7       -6.661154   1.000000
    8       -6.149562   1.000000
    9       -4.969821   1.000000
   10       -4.900416   1.000000
   11       -4.738792   1.000000
   12       -4.140329   1.000000
   13       -3.754716   0.180533
   14        0.124396   0.000000
   15        1.349066   0.000000
   16        2.331420   0.000000
 
  0.2393160E+00  0.2393160E+00  0.0000000E+00  0.8333333E-02
    1      -16.607804   1.000000
    2      -16.325766   1.000000
    3       -8.571852   1.000000
    4       -8.007223   1.000000
    5       -7.321914   1.000000
    6       -6.827957   1.000000
    7       -6.715624   1.000000
    8       -6.201894   1.000000
    9       -4.959543   1.000000
   10       -4.914654   1.000000
   11       -4.743979   1.000000
   12       -4.143368   1.000000
   13       -3.757271   0.200160
   14        0.088067   0.000000
   15        1.381389   0.000000
   16        2.453599   0.000000
 
  0.2478630E+00  0.2478630E+00  0.0000000E+00  0.8333333E-02
    1      -16.571595   1.000000
    2      -16.318672   1.000000
    3       -8.604723   1.000000
    4       -8.019969   1.000000
    5       -7.385563   1.000000
    6       -6.795903   1.000000
    7       -6.769363   1.000000
    8       -6.251004   1.000000
    9       -4.955119   1.000000
   10       -4.920636   1.000000
   11       -4.749418   1.000000
   12       -4.143313   1.000000
   13       -3.764578   0.262915
   14        0.054550   0.000000
   15        1.421971   0.000000
   16        2.559558   0.000000
 
  0.2564100E+00  0.2564100E+00  0.0000000E+00  0.8333333E-02
    1      -16.537463   1.000000
    2      -16.313417   1.000000
    3       -8.630558   1.000000
    4       -8.026628   1.000000
    5       -7.453211   1.000000
    6       -6.822239   1.000000
    7       -6.761510   1.000000
    8       -6.296524   1.000000
    9       -4.960692   1.000000
   10       -4.914240   1.000000
   11       -4.755009   1.000000
   12       -4.140314   1.000000
   13       -3.776463   0.382767
   14        0.024182   0.000000
   15        1.471096   0.000000
   16        2.625979   0.000000
 
  0.2649570E+00  0.2649570E+00  0.0000000E+00  0.8333333E-02
    1      -16.505605   1.000000
    2      -16.310027   1.000000
    3       -8.648931   1.000000
    4       -8.027513   1.000000
    5       -7.523037   1.000000
    6       -6.873954   1.000000
    7       -6.726690   1.000000
    8       -6.338216   1.000000
    9       -4.970117   1.000000
   10       -4.901814   1.000000
   11       -4.760685   1.000000
   12       -4.134476   1.000000
   13       -3.792615   0.563017
   14       -0.002718   0.000000
   15        1.528687   0.000000
   16        2.631820   0.000000
 
  0.2735040E+00  0.2735040E+00  0.0000000E+00  0.8333333E-02
    1      -16.476183   1.000000
    2      -16.308502   1.000000
    3       -8.659713   1.000000
    4       -8.023133   1.000000
    5       -7.593477   1.000000
    6       -6.924003   1.000000
    7       -6.692799   1.000000
    8       -6.375947   1.000000
    9       -4.979365   1.000000
   10       -4.887672   1.000000
   11       -4.766413   1.000000
   12       -4.125880   1.000000
   13       -3.812590   0.765340
   14       -0.025872   0.000000
   15        1.594287   0.000000
   16        2.588342   0.000000
 
  0.2820510E+00  0.2820510E+00  0.0000000E+00  0.8333333E-02
    1      -16.449322   1.000000
    2      -16.308804   1.000000
    3       -8.663099   1.000000
    4       -8.014191   1.000000
    5       -7.663011   1.000000
    6       -6.971658   1.000000
    7       -6.660827   1.000000
    8       -6.409687   1.000000
    9       -4.987358   1.000000
   10       -4.873210   1.000000
   11       -4.772112   1.000000
   12       -4.114593   1.000000
   13       -3.835800   0.916218
   14       -0.045080   0.000000
   15        1.667018   0.000000
   16        2.524142   0.000000
 
  0.2905980E+00  0.2905980E+00  0.0000000E+00  0.8333333E-02
    1      -16.425114   1.000000
    2      -16.310875   1.000000
    3       -8.659699   1.000000
    4       -8.001673   1.000000
    5       -7.730021   1.000000
    6       -7.015941   1.000000
    7       -6.631473   1.000000
    8       -6.439490   1.000000
    9       -4.993868   1.000000
   10       -4.859081   1.000000
   11       -4.777767   1.000000
   12       -4.100716   1.000000
   13       -3.861561   0.982515
   14       -0.060249   0.000000
   15        1.745504   0.000000
   16        2.452151   0.000000
 
  0.2991450E+00  0.2991450E+00  0.0000000E+00  0.8333333E-02
    1      -16.403611   1.000000
    2      -16.314640   1.000000
    3       -8.650648   1.000000
    4       -7.986874   1.000000
    5       -7.792604   1.000000
    6       -7.055627   1.000000
    7       -6.605216   1.000000
    8       -6.465482   1.000000
    9       -4.998885   1.000000
   10       -4.845749   1.000000
   11       -4.783400   1.000000
   12       -4.084382   1.000000
   13       -3.889111   0.998061
   14       -0.071439   0.000000
   15        1.827744   0.000000
   16        2.378651   0.000000
 
  0.3076920E+00  0.3076920E+00  0.0000000E+00  0.8333333E-02
    1      -16.384822   1.000000
    2      -16.319991   1.000000
    3       -8.637766   1.000000
    4       -7.971373   1.000000
    5       -7.848344   1.000000
    6       -7.089238   1.000000
    7       -6.582339   1.000000
    8       -6.487809   1.000000
    9       -5.002495   1.000000
   10       -4.833572   1.000000
   11       -4.789020   1.000000
   12       -4.065763   1.000000
   13       -3.917572   0.999889
   14       -0.078892   0.000000
   15        1.910934   0.000000
   16        2.307015   0.000000
 
  0.3162390E+00  0.3162390E+00  0.0000000E+00  0.8333333E-02
    1      -16.368713   1.000000
    2      -16.326800   1.000000
    3       -8.623782   1.000000
    4       -7.957043   1.000000
    5       -7.894106   1.000000
    6       -7.115123   1.000000
    7       -6.562966   1.000000
    8       -6.506650   1.000000
    9       -5.004838   1.000000
   10       -4.822845   1.000000
   11       -4.794709   1.000000
   12       -4.045118   1.000000
   13       -3.946053   0.999997
   14       -0.083091   0.000000
   15        1.991255   0.000000
   16        2.239406   0.000000
 
  0.3247860E+00  0.3247860E+00  0.0000000E+00  0.8333333E-02
    1      -16.355207   1.000000
    2      -16.334919   1.000000
    3       -8.612365   1.000000
    4       -7.945851   1.000000
    5       -7.925964   1.000000
    6       -7.131614   1.000000
    7       -6.547090   1.000000
    8       -6.522174   1.000000
    9       -5.006084   1.000000
   10       -4.813789   1.000000
   11       -4.800541   1.000000
   12       -4.022769   1.000000
   13       -3.973564   1.000000
   14       -0.084787   0.000000
   15        2.063795   0.000000
   16        2.177518   0.000000
 
  0.3333330E+00  0.3333330E+00  0.0000000E+00  0.8333333E-02
    1      -16.344243   1.000000
    2      -16.344154   1.000000
    3       -8.607698   1.000000
    4       -7.939640   1.000000
    5       -7.939598   1.000000
    6       -7.137323   1.000000
    7       -6.534594   1.000000
    8       -6.534559   1.000000
    9       -5.006453   1.000000
   10       -4.806637   1.000000
   11       -4.806566   1.000000
   12       -3.999095   1.000000
   13       -3.999092   1.000000
   14       -0.085057   0.000000
   15        2.122874   0.000000
   16        2.122899   0.000000
 
  0.3333330E+00  0.3333330E+00  0.0000000E+00  0.8333333E-02
    1      -16.344243   1.000000
    2      -16.344154   1.000000
    3       -8.607698   1.000000
    4       -7.939640   1.000000
    5       -7.939598   1.000000
    6       -7.137323   1.000000
    7       -6.534594   1.000000
    8       -6.534559   1.000000
    9       -5.006453   1.000000
   10       -4.806637   1.000000
   11       -4.806566   1.000000
   12       -3.999095   1.000000
   13       -3.999092   1.000000
   14       -0.085057   0.000000
   15        2.122874   0.000000
   16        2.122898   0.000000
 
  0.3376065E+00  0.3247860E+00  0.0000000E+00  0.8333333E-02
    1      -16.349222   1.000000
    2      -16.339589   1.000000
    3       -8.609048   1.000000
    4       -7.938796   1.000000
    5       -7.938480   1.000000
    6       -7.135870   1.000000
    7       -6.539658   1.000000
    8       -6.529525   1.000000
    9       -5.006375   1.000000
   10       -4.809777   1.000000
   11       -4.803736   1.000000
   12       -4.010793   1.000000
   13       -3.986900   1.000000
   14       -0.085088   0.000000
   15        2.098759   0.000000
   16        2.145694   0.000000
 
  0.3418800E+00  0.3162390E+00  0.0000000E+00  0.8333333E-02
    1      -16.354469   1.000000
    2      -16.335551   1.000000
    3       -8.613229   1.000000
    4       -7.939625   1.000000
    5       -7.931670   1.000000
    6       -7.131515   1.000000
    7       -6.544015   1.000000
    8       -6.525226   1.000000
    9       -5.006163   1.000000
   10       -4.813077   1.000000
   11       -4.801338   1.000000
   12       -4.021605   1.000000
   13       -3.974534   1.000000
   14       -0.085321   0.000000
   15        2.077013   0.000000
   16        2.163331   0.000000
 
  0.3461535E+00  0.3076920E+00  0.0000000E+00  0.8333333E-02
    1      -16.359919   1.000000
    2      -16.332060   1.000000
    3       -8.620312   1.000000
    4       -7.942142   1.000000
    5       -7.919135   1.000000
    6       -7.124314   1.000000
    7       -6.547677   1.000000
    8       -6.521646   1.000000
    9       -5.005844   1.000000
   10       -4.816513   1.000000
   11       -4.799433   1.000000
   12       -4.031399   1.000000
   13       -3.962056   1.000000
   14       -0.085988   0.000000
   15        2.057853   0.000000
   16        2.175516   0.000000
 
  0.3504271E+00  0.2991450E+00  0.0000000E+00  0.8333333E-02
    1      -16.365549   1.000000
    2      -16.329094   1.000000
    3       -8.630201   1.000000
    4       -7.946319   1.000000
    5       -7.901011   1.000000
    6       -7.114387   1.000000
    7       -6.550655   1.000000
    8       -6.518739   1.000000
    9       -5.005436   1.000000
   10       -4.820093   1.000000
   11       -4.798023   1.000000
   12       -4.040049   1.000000
   13       -3.949529   0.999998
   14       -0.087338   0.000000
   15        2.041481   0.000000
   16        2.182199   0.000000
 
  0.3547006E+00  0.2905980E+00  0.0000000E+00  0.8333333E-02
    1      -16.371335   1.000000
    2      -16.326629   1.000000
    3       -8.642658   1.000000
    4       -7.952081   1.000000
    5       -7.877575   1.000000
    6       -7.101910   1.000000
    7       -6.552971   1.000000
    8       -6.516460   1.000000
    9       -5.004973   1.000000
   10       -4.823841   1.000000
   11       -4.797104   1.000000
   12       -4.047430   1.000000
   13       -3.937006   0.999989
   14       -0.089637   0.000000
   15        2.028105   0.000000
   16        2.183570   0.000000
 
  0.3589741E+00  0.2820510E+00  0.0000000E+00  0.8333333E-02
    1      -16.377255   1.000000
    2      -16.324641   1.000000
    3       -8.657358   1.000000
    4       -7.959312   1.000000
    5       -7.849201   1.000000
    6       -7.087106   1.000000
    7       -6.554648   1.000000
    8       -6.514770   1.000000
    9       -5.004494   1.000000
   10       -4.827774   1.000000
   11       -4.796678   1.000000
   12       -4.053422   1.000000
   13       -3.924544   0.999950
   14       -0.093163   0.000000
   15        2.017929   0.000000
   16        2.179990   0.000000
 
  0.3632476E+00  0.2735040E+00  0.0000000E+00  0.8333333E-02
    1      -16.383288   1.000000
    2      -16.323102   1.000000
    3       -8.673930   1.000000
    4       -7.967871   1.000000
    5       -7.816315   1.000000
    6       -7.070233   1.000000
    7       -6.555700   1.000000
    8       -6.513617   1.000000
    9       -5.004029   1.000000
   10       -4.831885   1.000000
   11       -4.796738   1.000000
   12       -4.057909   1.000000
   13       -3.912196   0.999801
   14       -0.098195   0.000000
   15        2.011159   0.000000
   16        2.171954   0.000000
 
  0.3675211E+00  0.2649570E+00  0.0000000E+00  0.8333333E-02
    1      -16.389409   1.000000
    2      -16.321984   1.000000
    3       -8.692005   1.000000
    4       -7.977592   1.000000
    5       -7.779353   1.000000
    6       -7.051567   1.000000
    7       -6.556149   1.000000
    8       -6.512952   1.000000
    9       -5.003605   1.000000
   10       -4.836191   1.000000
   11       -4.797276   1.000000
   12       -4.060791   1.000000
   13       -3.900015   0.999304
   14       -0.105016   0.000000
   15        2.007984   0.000000
   16        2.160008   0.000000
 
  0.3717946E+00  0.2564100E+00  0.0000000E+00  0.8333333E-02
    1      -16.395595   1.000000
    2      -16.321258   1.000000
    3       -8.711230   1.000000
    4       -7.988304   1.000000
    5       -7.738736   1.000000
    6       -7.031398   1.000000
    7       -6.556011   1.000000
    8       -6.512719   1.000000
    9       -5.003264   1.000000
   10       -4.840685   1.000000
   11       -4.798270   1.000000
   12       -4.061963   1.000000
   13       -3.888042   0.997866
   14       -0.113896   0.000000
   15        2.008586   0.000000
   16        2.144708   0.000000
 
  0.3760681E+00  0.2478630E+00  0.0000000E+00  0.8333333E-02
    1      -16.401824   1.000000
    2      -16.320896   1.000000
    3       -8.731294   1.000000
    4       -7.999839   1.000000
    5       -7.694863   1.000000