    3    3    1    1
  0.1126013E+03  0.3950000E-09  0.3950000E-09  0.2500000E-08  0.5000000E-15
  1.000000000000000E-004
  CAR 
 NiI2                                    
     24    120     16
 
  0.0000000E+00  0.0000000E+00  0.0000000E+00  0.8333333E-02
    1      -16.240590   1.000000
    2      -15.483520   1.000000
    3       -7.265956   1.000000
    4       -5.361756   1.000000
    5       -5.361748   1.000000
    6       -4.475361   1.000000
    7       -3.915393   1.000000
    8       -3.915344   1.000000
    9       -3.715656   1.000000
   10       -3.559944   1.000000
   11       -3.559940   1.000000
   12       -2.159913   0.000000
   13       -2.159891   0.000000
   14        0.934530   0.000000
   15        1.802509   0.000000
   16        2.025945   0.000000
 
  0.8547000E-02  0.8547000E-02  0.0000000E+00  0.8333333E-02
    1      -16.239073   1.000000
    2      -15.482626   1.000000
    3       -7.264322   1.000000
    4       -5.367785   1.000000
    5       -5.361733   1.000000
    6       -4.470954   1.000000
    7       -3.921618   1.000000
    8       -3.921338   1.000000
    9       -3.729881   1.000000
   10       -3.556755   1.000000
   11       -3.551573   1.000000
   12       -2.168552   0.000000
   13       -2.161452   0.000000
   14        0.943417   0.000000
   15        1.815761   0.000000
   16        2.028410   0.000000
 
  0.1709400E-01  0.1709400E-01  0.0000000E+00  0.8333333E-02
    1      -16.234513   1.000000
    2      -15.479948   1.000000
    3       -7.259429   1.000000
    4       -5.385435   1.000000
    5       -5.361632   1.000000
    6       -4.458186   1.000000
    7       -3.942576   1.000000
    8       -3.939534   1.000000
    9       -3.761534   1.000000
   10       -3.547883   1.000000
   11       -3.533627   1.000000
   12       -2.193755   0.000000
   13       -2.166223   0.000000
   14        0.969622   0.000000
   15        1.854525   0.000000
   16        2.036016   0.000000
 
  0.2564100E-01  0.2564100E-01  0.0000000E+00  0.8333333E-02
    1      -16.226932   1.000000
    2      -15.475510   1.000000
    3       -7.251317   1.000000
    4       -5.413652   1.000000
    5       -5.361527   1.000000
    6       -4.438313   1.000000
    7       -3.987269   1.000000
    8       -3.967595   1.000000
    9       -3.792230   1.000000
   10       -3.535036   1.000000
   11       -3.514888   1.000000
   12       -2.233592   0.000000
   13       -2.174498   0.000000
   14        1.011845   0.000000
   15        1.915463   0.000000
   16        2.049836   0.000000
 
  0.3418800E-01  0.3418800E-01  0.0000000E+00  0.8333333E-02
    1      -16.216361   1.000000
    2      -15.469346   1.000000
    3       -7.240077   1.000000
    4       -5.451001   1.000000
    5       -5.361490   1.000000
    6       -4.413080   1.000000
    7       -4.059505   1.000000
    8       -4.004016   1.000000
    9       -3.812388   1.000000
   10       -3.520156   1.000000
   11       -3.498667   1.000000
   12       -2.285132   0.000000
   13       -2.186639   0.000000
   14        1.068114   0.000000
   15        1.989758   0.000000
   16        2.075267   0.000000
 
  0.4273500E-01  0.4273500E-01  0.0000000E+00  0.8333333E-02
    1      -16.202842   1.000000
    2      -15.461502   1.000000
    3       -7.225829   1.000000
    4       -5.495931   1.000000
    5       -5.361621   1.000000
    6       -4.384432   1.000000
    7       -4.154527   1.000000
    8       -4.047293   1.000000
    9       -3.823495   1.000000
   10       -3.504955   1.000000
   11       -3.485585   1.000000
   12       -2.344812   0.000000
   13       -2.202991   0.000000
   14        1.136024   0.000000
   15        2.049429   0.000000
   16        2.136131   0.000000
 
  0.5128200E-01  0.5128200E-01  0.0000000E+00  0.8333333E-02
    1      -16.186432   1.000000
    2      -15.452041   1.000000
    3       -7.208734   1.000000
    4       -5.547041   1.000000
    5       -5.362055   1.000000
    6       -4.354313   1.000000
    7       -4.265814   1.000000
    8       -4.096271   1.000000
    9       -3.829484   1.000000
   10       -3.490792   1.000000
   11       -3.475407   1.000000
   12       -2.408815   0.000007
   13       -2.223817   0.000000
   14        1.212998   0.000000
   15        2.083626   0.000000
   16        2.246164   0.000000
 
  0.5982900E-01  0.5982900E-01  0.0000000E+00  0.8333333E-02
    1      -16.167209   1.000000
    2      -15.441034   1.000000
    3       -7.189016   1.000000
    4       -5.603151   1.000000
    5       -5.362959   1.000000
    6       -4.388545   1.000000
    7       -4.324609   1.000000
    8       -4.150139   1.000000
    9       -3.832745   1.000000
   10       -3.478736   1.000000
   11       -3.467740   1.000000
   12       -2.473310   0.005794
   13       -2.249208   0.000000
   14        1.296516   0.000000
   15        2.112992   0.000000
   16        2.371391   0.000000
 
  0.6837600E-01  0.6837600E-01  0.0000000E+00  0.8333333E-02
    1      -16.145251   1.000000
    2      -15.428569   1.000000
    3       -7.166942   1.000000
    4       -5.663262   1.000000
    5       -5.364528   1.000000
    6       -4.519213   1.000000
    7       -4.297097   1.000000
    8       -4.208230   1.000000
    9       -3.834456   1.000000
   10       -3.469574   1.000000
   11       -3.462194   1.000000
   12       -2.534737   0.215648
   13       -2.279122   0.000000
   14        1.384264   0.000000
   15        2.143363   0.000000
   16        2.451598   0.000000
 
  0.7692300E-01  0.7692300E-01  0.0000000E+00  0.8333333E-02
    1      -16.120655   1.000000
    2      -15.414749   1.000000
    3       -7.142872   1.000000
    4       -5.726587   1.000000
    5       -5.367002   1.000000
    6       -4.655002   1.000000
    7       -4.273529   1.000000
    8       -4.269950   1.000000
    9       -3.835203   1.000000
   10       -3.463822   1.000000
   11       -3.458509   1.000000
   12       -2.589947   0.780704
   13       -2.313345   0.000000
   14        1.474188   0.000000
   15        2.175650   0.000000
   16        2.432625   0.000000
 
  0.8547000E-01  0.8547000E-01  0.0000000E+00  0.8333333E-02
    1      -16.093528   1.000000
    2      -15.399689   1.000000
    3       -7.117250   1.000000
    4       -5.792451   1.000000
    5       -5.370652   1.000000
    6       -4.793443   1.000000
    7       -4.334834   1.000000
    8       -4.255450   1.000000
    9       -3.835284   1.000000
   10       -3.461607   1.000000
   11       -3.456516   1.000000
   12       -2.636452   0.981688
   13       -2.351505   0.000000
   14        1.564381   0.000000
   15        2.209744   0.000000
   16        2.394310   0.000000
 
  0.9401700E-01  0.9401700E-01  0.0000000E+00  0.8333333E-02
    1      -16.063991   1.000000
    2      -15.383515   1.000000
    3       -7.090642   1.000000
    4       -5.860251   1.000000
    5       -5.375790   1.000000
    6       -4.932265   1.000000
    7       -4.402182   1.000000
    8       -4.244453   1.000000
    9       -3.834841   1.000000
   10       -3.462600   1.000000
   11       -3.456132   1.000000
   12       -2.672587   0.999071
   13       -2.393086   0.000001
   14        1.652737   0.000000
   15        2.245175   0.000000
   16        2.343724   0.000000
 
  0.1025640E+00  0.1025640E+00  0.0000000E+00  0.8333333E-02
    1      -16.032186   1.000000
    2      -15.366368   1.000000
    3       -7.063767   1.000000
    4       -5.929463   1.000000
    5       -5.382834   1.000000
    6       -5.069268   1.000000
    7       -4.471442   1.000000
    8       -4.241765   1.000000
    9       -3.833953   1.000000
   10       -3.466001   1.000000
   11       -3.457375   1.000000
   12       -2.697692   0.999934
   13       -2.437444   0.000201
   14        1.736078   0.000000
   15        2.281254   0.000000
   16        2.290767   0.000000
 
  0.1111110E+00  0.1111110E+00  0.0000000E+00  0.8333333E-02
    1      -15.998274   1.000000
    2      -15.348394   1.000000
    3       -7.037539   1.000000
    4       -5.999575   1.000000
    5       -5.392404   1.000000
    6       -5.202060   1.000000
    7       -4.541979   1.000000
    8       -4.248238   1.000000
    9       -3.832649   1.000000
   10       -3.470724   1.000000
   11       -3.460305   1.000000
   12       -2.712023   0.999988
   13       -2.483816   0.012965
   14        1.808230   0.000000
   15        2.246681   0.000000
   16        2.317130   0.000000
 
  0.1196580E+00  0.1196580E+00  0.0000000E+00  0.8333333E-02
    1      -15.962415   1.000000
    2      -15.329756   1.000000
    3       -7.013106   1.000000
    4       -6.070048   1.000000
    5       -5.406799   1.000000
    6       -5.326554   1.000000
    7       -4.613149   1.000000
    8       -4.264191   1.000000
    9       -3.830911   1.000000
   10       -3.475652   1.000000
   11       -3.465031   1.000000
   12       -2.716580   0.999993
   13       -2.531337   0.188576
   14        1.857201   0.000000
   15        2.226760   0.000000
   16        2.351819   0.000000
 
  0.1282050E+00  0.1282050E+00  0.0000000E+00  0.8333333E-02
    1      -15.924793   1.000000
    2      -15.310624   1.000000
    3       -6.991903   1.000000
    4       -6.140352   1.000000
    5       -5.460737   1.000000
    6       -5.406138   1.000000
    7       -4.684354   1.000000
    8       -4.289352   1.000000
    9       -3.828714   1.000000
   10       -3.480006   1.000000
   11       -3.471678   1.000000
   12       -2.712809   0.999989
   13       -2.579072   0.679751
   14        1.869557   0.000000
   15        2.246525   0.000000
   16        2.384266   0.000000
 
  0.1367520E+00  0.1367520E+00  0.0000000E+00  0.8333333E-02
    1      -15.885618   1.000000
    2      -15.291181   1.000000
    3       -6.975661   1.000000
    4       -6.209934   1.000000
    5       -5.564153   1.000000
    6       -5.428846   1.000000
    7       -4.755069   1.000000
    8       -4.322947   1.000000
    9       -3.826013   1.000000
   10       -3.483401   1.000000
   11       -3.480392   1.000000
   12       -2.702348   0.999962
   13       -2.626053   0.963739
   14        1.848006   0.000000
   15        2.304572   0.000000
   16        2.413443   0.000000
 
  0.1452990E+00  0.1452990E+00  0.0000000E+00  0.8333333E-02
    1      -15.845101   1.000000
    2      -15.271611   1.000000
    3       -6.966334   1.000000
    4       -6.278221   1.000000
    5       -5.659514   1.000000
    6       -5.450052   1.000000
    7       -4.824816   1.000000
    8       -4.363844   1.000000
    9       -3.822758   1.000000
   10       -3.491250   1.000000
   11       -3.485847   1.000000
   12       -2.686821   0.999780
   13       -2.671333   0.998953
   14        1.807845   0.000000
   15        2.386381   0.000000
   16        2.438485   0.000000
 
  0.1538460E+00  0.1538460E+00  0.0000000E+00  0.8333333E-02
    1      -15.803467   1.000000
    2      -15.252108   1.000000
    3       -6.965897   1.000000
    4       -6.344622   1.000000
    5       -5.740529   1.000000
    6       -5.473959   1.000000
    7       -4.893231   1.000000
    8       -4.410775   1.000000
    9       -3.818864   1.000000
   10       -3.504351   1.000000
   11       -3.487656   1.000000
   12       -2.714019   0.999991
   13       -2.667774   0.998539
   14        1.760135   0.000000
   15        2.458862   0.000000
   16        2.481308   0.000000
 
  0.1623930E+00  0.1623930E+00  0.0000000E+00  0.8333333E-02
    1      -15.760962   1.000000
    2      -15.232864   1.000000
    3       -6.975936   1.000000
    4       -6.408506   1.000000
    5       -5.805123   1.000000
    6       -5.500946   1.000000
    7       -4.960056   1.000000
    8       -4.462452   1.000000
    9       -3.814216   1.000000
   10       -3.519596   1.000000
   11       -3.489121   1.000000
   12       -2.753332   1.000000
   13       -2.646615   0.991282
   14        1.710076   0.000000
   15        2.474529   0.000000
   16        2.584328   0.000000
 
  0.1709400E+00  0.1709400E+00  0.0000000E+00  0.8333333E-02
    1      -15.717833   1.000000
    2      -15.214073   1.000000
    3       -6.997138   1.000000
    4       -6.469285   1.000000
    5       -5.852794   1.000000
    6       -5.530774   1.000000
    7       -5.025139   1.000000
    8       -4.517684   1.000000
    9       -3.808754   1.000000
   10       -3.536812   1.000000
   11       -3.490610   1.000000
   12       -2.788685   1.000000
   13       -2.624649   0.960464
   14        1.659925   0.000000
   15        2.486009   0.000000
   16        2.693178   0.000000
 
  0.1794870E+00  0.1794870E+00  0.0000000E+00  0.8333333E-02
    1      -15.674349   1.000000
    2      -15.195934   1.000000
    3       -7.028926   1.000000
    4       -6.526390   1.000000
    5       -5.884928   1.000000
    6       -5.562619   1.000000
    7       -5.088461   1.000000
    8       -4.575412   1.000000
    9       -3.802442   1.000000
   10       -3.555724   1.000000
   11       -3.492414   1.000000
   12       -2.819725   1.000000
   13       -2.603060   0.873991
   14        1.610654   0.000000
   15        2.494374   0.000000
   16        2.806762   0.000000
 
  0.1880340E+00  0.1880340E+00  0.0000000E+00  0.8333333E-02
    1      -15.630787   1.000000
    2      -15.178632   1.000000
    3       -7.069442   1.000000
    4       -6.579233   1.000000
    5       -5.904977   1.000000
    6       -5.594732   1.000000
    7       -5.150007   1.000000
    8       -4.634648   1.000000
    9       -3.795154   1.000000
   10       -3.575863   1.000000
   11       -3.494657   1.000000
   12       -2.846260   1.000000
   13       -2.582864   0.717100
   14        1.562702   0.000000
   15        2.501136   0.000000
   16        2.924462   0.000000
 
  0.1965810E+00  0.1965810E+00  0.0000000E+00  0.8333333E-02
    1      -15.587438   1.000000
    2      -15.162355   1.000000
    3       -7.116022   1.000000
    4       -6.627322   1.000000
    5       -5.918576   1.000000
    6       -5.624022   1.000000
    7       -5.209924   1.000000
    8       -4.694538   1.000000
    9       -3.786879   1.000000
   10       -3.596733   1.000000
   11       -3.497462   1.000000
   12       -2.868309   1.000000
   13       -2.565002   0.527523
   14        1.516263   0.000000
   15        2.508069   0.000000
   16        3.045818   0.000000
 
  0.2051280E+00  0.2051280E+00  0.0000000E+00  0.8333333E-02
    1      -15.544583   1.000000
    2      -15.147276   1.000000
    3       -7.165741   1.000000
    4       -6.670192   1.000000
    5       -5.933183   1.000000
    6       -5.645755   1.000000
    7       -5.268366   1.000000
    8       -4.754275   1.000000
    9       -3.777603   1.000000
   10       -3.617748   1.000000
   11       -3.500840   1.000000
   12       -2.886033   1.000000
   13       -2.550232   0.363647
   14        1.471470   0.000000
   15        2.517022   0.000000
   16        3.170349   0.000000
 
  0.2136750E+00  0.2136750E+00  0.0000000E+00  0.8333333E-02
    1      -15.502515   1.000000
    2      -15.133551   1.000000
    3       -7.215859   1.000000
    4       -6.707457   1.000000
    5       -5.956353   1.000000
    6       -5.654848   1.000000
    7       -5.325542   1.000000
    8       -4.813124   1.000000
    9       -3.767362   1.000000
   10       -3.638320   1.000000
   11       -3.504777   1.000000
   12       -2.899678   1.000000
   13       -2.539227   0.254630
   14        1.428460   0.000000
   15        2.529761   0.000000
   16        3.297390   0.000000
 
  0.2222220E+00  0.2222220E+00  0.0000000E+00  0.8333333E-02
    1      -15.461509   1.000000
    2      -15.121322   1.000000
    3       -7.264052   1.000000
    4       -6.738818   1.000000
    5       -5.992278   1.000000
    6       -5.649142   1.000000
    7       -5.381652   1.000000
    8       -4.870393   1.000000
    9       -3.756333   1.000000
   10       -3.657855   1.000000
   11       -3.509212   1.000000
   12       -2.909522   1.000000
   13       -2.532467   0.197329
   14        1.387419   0.000000
   15        2.547854   0.000000
   16        3.425826   0.000000
 
  0.2307690E+00  0.2307690E+00  0.0000000E+00  0.8333333E-02
    1      -15.421844   1.000000
    2      -15.110711   1.000000
    3       -7.308452   1.000000
    4       -6.764040   1.000000
    5       -6.040367   1.000000
    6       -5.630773   1.000000
    7       -5.436894   1.000000
    8       -4.925463   1.000000
    9       -3.744973   1.000000
   10       -3.675549   1.000000
   11       -3.514049   1.000000
   12       -2.915841   1.000000
   13       -2.530274   0.180563
   14        1.348582   0.000000
   15        2.572594   0.000000
   16        3.553540   0.000000
 
  0.2393160E+00  0.2393160E+00  0.0000000E+00  0.8333333E-02
    1      -15.383783   1.000000
    2      -15.101817   1.000000
    3       -7.347615   1.000000
    4       -6.783025   1.000000
    5       -6.097699   1.000000
    6       -5.603750   1.000000
    7       -5.491396   1.000000
    8       -4.977778   1.000000
    9       -3.734719   1.000000
   10       -3.689776   1.000000
   11       -3.519230   1.000000
   12       -2.918873   1.000000
   13       -2.532830   0.200195
   14        1.312239   0.000000
   15        2.604955   0.000000
   16        3.675985   0.000000
 
  0.2478630E+00  0.2478630E+00  0.0000000E+00  0.8333333E-02
    1      -15.347578   1.000000
    2      -15.094717   1.000000
    3       -7.380477   1.000000
    4       -6.795772   1.000000
    5       -6.161344   1.000000
    6       -5.571709   1.000000
    7       -5.545165   1.000000
    8       -5.026872   1.000000
    9       -3.730307   1.000000
   10       -3.695741   1.000000
   11       -3.524661   1.000000
   12       -2.918818   1.000000
   13       -2.540134   0.262927
   14        1.278707   0.000000
   15        2.645573   0.000000
   16        3.782353   0.000000
 
  0.2564100E+00  0.2564100E+00  0.0000000E+00  0.8333333E-02
    1      -15.313450   1.000000
    2      -15.089455   1.000000
    3       -7.406304   1.000000
    4       -6.802429   1.000000
    5       -6.228988   1.000000
    6       -5.598059   1.000000
    7       -5.537315   1.000000
    8       -5.072369   1.000000
    9       -3.735843   1.000000
   10       -3.689344   1.000000
   11       -3.530236   1.000000
   12       -2.915818   1.000000
   13       -2.552012   0.382709
   14        1.248328   0.000000
   15        2.694732   0.000000
   16        3.849287   0.000000
 
  0.2649570E+00  0.2649570E+00  0.0000000E+00  0.8333333E-02
    1      -15.281600   1.000000
    2      -15.086063   1.000000
    3       -7.424675   1.000000
    4       -6.803317   1.000000
    5       -6.298816   1.000000
    6       -5.649807   1.000000
    7       -5.502499   1.000000
    8       -5.114051   1.000000
    9       -3.745258   1.000000
   10       -3.676944   1.000000
   11       -3.535912   1.000000
   12       -2.909978   1.000000
   13       -2.568164   0.562960
   14        1.221416   0.000000
   15        2.752353   0.000000
   16        3.854588   0.000000
 
  0.2735040E+00  0.2735040E+00  0.0000000E+00  0.8333333E-02
    1      -15.252186   1.000000
    2      -15.084541   1.000000
    3       -7.435455   1.000000
    4       -6.798941   1.000000
    5       -6.369261   1.000000
    6       -5.699888   1.000000
    7       -5.468616   1.000000
    8       -5.151775   1.000000
    9       -3.754511   1.000000
   10       -3.662818   1.000000
   11       -3.541643   1.000000
   12       -2.901388   1.000000
   13       -2.588138   0.765289
   14        1.198252   0.000000
   15        2.817984   0.000000
   16        3.812191   0.000000
 
  0.2820510E+00  0.2820510E+00  0.0000000E+00  0.8333333E-02
    1      -15.225331   1.000000
    2      -15.084843   1.000000
    3       -7.438835   1.000000
    4       -6.789996   1.000000
    5       -6.438791   1.000000
    6       -5.747564   1.000000
    7       -5.436636   1.000000
    8       -5.185491   1.000000
    9       -3.762487   1.000000
   10       -3.648352   1.000000
   11       -3.547317   1.000000
   12       -2.890100   1.000000
   13       -2.611337   0.916143
   14        1.179039   0.000000
   15        2.890745   0.000000
   16        3.748088   0.000000
 
  0.2905980E+00  0.2905980E+00  0.0000000E+00  0.8333333E-02
    1      -15.201124   1.000000
    2      -15.086915   1.000000
    3       -7.435429   1.000000
    4       -6.777476   1.000000
    5       -6.505802   1.000000
    6       -5.791871   1.000000
    7       -5.407280   1.000000
    8       -5.215283   1.000000
    9       -3.768997   1.000000
   10       -3.634227   1.000000
   11       -3.552961   1.000000
   12       -2.876224   1.000000
   13       -2.637090   0.982484
   14        1.163863   0.000000
   15        2.969262   0.000000
   16        3.676084   0.000000
 
  0.2991450E+00  0.2991450E+00  0.0000000E+00  0.8333333E-02
    1      -15.179621   1.000000
    2      -15.090677   1.000000
    3       -7.426369   1.000000
    4       -6.762669   1.000000
    5       -6.568384   1.000000
    6       -5.831575   1.000000
    7       -5.381016   1.000000
    8       -5.241262   1.000000
    9       -3.774007   1.000000
   10       -3.620902   1.000000
   11       -3.558577   1.000000
   12       -2.859890   1.000000
   13       -2.664630   0.998055
   14        1.152669   0.000000
   15        3.051535   0.000000
   16        3.602574   0.000000
 
  0.3076920E+00  0.3076920E+00  0.0000000E+00  0.8333333E-02
    1      -15.160833   1.000000
    2      -15.096022   1.000000
    3       -7.413483   1.000000
    4       -6.747165   1.000000
    5       -6.624129   1.000000
    6       -5.865204   1.000000
    7       -5.358139   1.000000
    8       -5.263586   1.000000
    9       -3.777618   1.000000
   10       -3.608738   1.000000
   11       -3.564201   1.000000
   12       -2.841278   1.000000
   13       -2.693097   0.999889
   14        1.145210   0.000000
   15        3.134757   0.000000
   16        3.530923   0.000000
 
  0.3162390E+00  0.3162390E+00  0.0000000E+00  0.8333333E-02
    1      -15.144726   1.000000
    2      -15.102825   1.000000
    3       -7.399494   1.000000
    4       -6.732830   1.000000
    5       -6.669889   1.000000
    6       -5.891100   1.000000
    7       -5.338756   1.000000
    8       -5.282428   1.000000
    9       -3.779953   1.000000
   10       -3.598014   1.000000
   11       -3.569892   1.000000
   12       -2.820636   1.000000
   13       -2.721579   0.999997
   14        1.141009   0.000000
   15        3.215108   0.000000
   16        3.463303   0.000000
 
  0.3247860E+00  0.3247860E+00  0.0000000E+00  0.8333333E-02
    1      -15.131223   1.000000
    2      -15.110941   1.000000
    3       -7.388077   1.000000
    4       -6.721634   1.000000
    5       -6.701748   1.000000
    6       -5.907599   1.000000
    7       -5.322881   1.000000
    8       -5.297959   1.000000
    9       -3.781211   1.000000
   10       -3.588967   1.000000
   11       -3.575736   1.000000
   12       -2.798293   1.000000
   13       -2.749096   1.000000
   14        1.139311   0.000000
   15        3.287672   0.000000
   16        3.401404   0.000000
 
  0.3333330E+00  0.3333330E+00  0.0000000E+00  0.8333333E-02
    1      -15.120248   1.000000
    2      -15.120184   1.000000
    3       -7.383409   1.000000
    4       -6.715414   1.000000
    5       -6.715388   1.000000
    6       -5.913310   1.000000
    7       -5.310374   1.000000
    8       -5.310354   1.000000
    9       -3.781574   1.000000
   10       -3.581826   1.000000
   11       -3.581754   1.000000
   12       -2.774624   1.000000
   13       -2.774620   1.000000
   14        1.139041   0.000000
   15        3.346757   0.000000
   16        3.346786   0.000000
 
  0.3333330E+00  0.3333330E+00  0.0000000E+00  0.8333333E-02
    1      -15.120248   1.000000
    2      -15.120184   1.000000
    3       -7.383409   1.000000
    4       -6.715414   1.000000
    5       -6.715388   1.000000
    6       -5.913310   1.000000
    7       -5.310374   1.000000
    8       -5.310354   1.000000
    9       -3.781574   1.000000
   10       -3.581826   1.000000
   11       -3.581754   1.000000
   12       -2.774624   1.000000
   13       -2.774620   1.000000
   14        1.139041   0.000000
   15        3.346758   0.000000
   16        3.346786   0.000000
 
  0.3376065E+00  0.3247860E+00  0.0000000E+00  0.8333333E-02
    1      -15.125238   1.000000
    2      -15.115608   1.000000
    3       -7.384759   1.000000
    4       -6.714578   1.000000
    5       -6.714262   1.000000
    6       -5.911857   1.000000
    7       -5.315444   1.000000
    8       -5.305308   1.000000
    9       -3.781492   1.000000
   10       -3.584958   1.000000
   11       -3.578927   1.000000
   12       -2.786319   1.000000
   13       -2.762433   1.000000
   14        1.139010   0.000000
   15        3.322647   0.000000
   16        3.369578   0.000000
 
  0.3418800E+00  0.3162390E+00  0.0000000E+00  0.8333333E-02
    1      -15.130486   1.000000
    2      -15.111570   1.000000
    3       -7.388940   1.000000
    4       -6.715412   1.000000
    5       -6.707450   1.000000
    6       -5.907500   1.000000
    7       -5.319805   1.000000
    8       -5.301013   1.000000
    9       -3.781291   1.000000
   10       -3.588258   1.000000
   11       -3.576537   1.000000
   12       -2.797131   1.000000
   13       -2.750070   1.000000
   14        1.138776   0.000000
   15        3.300897   0.000000
   16        3.387208   0.000000
 
  0.3461535E+00  0.3076920E+00  0.0000000E+00  0.8333333E-02
    1      -15.135934   1.000000
    2      -15.108078   1.000000
    3       -7.396022   1.000000
    4       -6.717930   1.000000
    5       -6.694910   1.000000
    6       -5.900293   1.000000
    7       -5.323464   1.000000
    8       -5.297426   1.000000
    9       -3.780961   1.000000
   10       -3.591673   1.000000
   11       -3.574620   1.000000
   12       -2.806917   1.000000
   13       -2.737586   1.000000
   14        1.138111   0.000000
   15        3.281737   0.000000
   16        3.399381   0.000000
 
  0.3504271E+00  0.2991450E+00  0.0000000E+00  0.8333333E-02
    1      -15.141563   1.000000
    2      -15.105113   1.000000
    3       -7.405913   1.000000
    4       -6.722111   1.000000
    5       -6.676785   1.000000
    6       -5.890360   1.000000
    7       -5.326445   1.000000
    8       -5.294515   1.000000
    9       -3.780549   1.000000
   10       -3.595252   1.000000
   11       -3.573209   1.000000
   12       -2.815566   1.000000
   13       -2.725060   0.999998
   14        1.136761   0.000000
   15        3.265365   0.000000
   16        3.406052   0.000000
 
  0.3547006E+00  0.2905980E+00  0.0000000E+00  0.8333333E-02
    1      -15.147349   1.000000
    2      -15.102650   1.000000
    3       -7.418371   1.000000
    4       -6.727877   1.000000
    5       -6.653347   1.000000
    6       -5.877876   1.000000
    7       -5.328766   1.000000
    8       -5.292235   1.000000
    9       -3.780086   1.000000
   10       -3.598993   1.000000
   11       -3.572290   1.000000
   12       -2.822937   1.000000
   13       -2.712535   0.999989
   14        1.134464   0.000000
   15        3.251990   0.000000
   16        3.407404   0.000000
 
  0.3589741E+00  0.2820510E+00  0.0000000E+00  0.8333333E-02
    1      -15.153269   1.000000
    2      -15.100663   1.000000
    3       -7.433072   1.000000
    4       -6.735114   1.000000
    5       -6.624974   1.000000
    6       -5.863065   1.000000
    7       -5.330453   1.000000
    8       -5.290544   1.000000
    9       -3.779610   1.000000
   10       -3.602931   1.000000
   11       -3.571867   1.000000
   12       -2.828930   1.000000
   13       -2.700075   0.999950
   14        1.130938   0.000000
   15        3.241815   0.000000
   16        3.403804   0.000000
 
  0.3632476E+00  0.2735040E+00  0.0000000E+00  0.8333333E-02
    1      -15.159301   1.000000
    2      -15.099125   1.000000
    3       -7.449647   1.000000
    4       -6.743682   1.000000
    5       -6.592086   1.000000
    6       -5.846182   1.000000
    7       -5.331515   1.000000
    8       -5.289388   1.000000
    9       -3.779147   1.000000
   10       -3.607037   1.000000
   11       -3.571929   1.000000
   12       -2.833417   1.000000
   13       -2.687727   0.999800
   14        1.125908   0.000000
   15        3.235044   0.000000
   16        3.395744   0.000000
 
  0.3675211E+00  0.2649570E+00  0.0000000E+00  0.8333333E-02
    1      -15.165422   1.000000
    2      -15.098008   1.000000
    3       -7.467724   1.000000
    4       -6.753408   1.000000
    5       -6.555123   1.000000
    6       -5.827506   1.000000
    7       -5.331971   1.000000
    8       -5.288722   1.000000
    9       -3.778723   1.000000
   10       -3.611342   1.000000
   11       -3.572472   1.000000
   12       -2.836298   1.000000
   13       -2.675547   0.999303
   14        1.119089   0.000000
   15        3.231870   0.000000
   16        3.383777   0.000000
 
  0.3717946E+00  0.2564100E+00  0.0000000E+00  0.8333333E-02
    1      -15.171606   1.000000
    2      -15.097284   1.000000
    3       -7.486951   1.000000
    4       -6.764126   1.000000
    5       -6.514501   1.000000
    6       -5.807318   1.000000
    7       -5.331841   1.000000
    8       -5.288482   1.000000
    9       -3.778379   1.000000
   10       -3.615830   1.000000
   11       -3.573461   1.000000
   12       -2.837472   1.000000
   13       -2.663574   0.997862
   14        1.110213   0.000000
   15        3.232473   0.000000
   16        3.368457   0.000000
 
  0.3760681E+00  0.2478630E+00  0.0000000E+00  0.8333333E-02
    1      -15.177833   1.000000
    2      -15.096923   1.000000
    3       -7.507018   1.000000
    4       -6.775667   1.000000
    5       -6.470627   1.000000