    3    3    1    1
  0.2252027E+03  0.3950000E-09  0.3950000E-09  0.5000000E-08  0.5000000E-15
  1.000000000000000E-004
  CAR 
 NiI2                                    
     24    120     16
 
  0.0000000E+00  0.0000000E+00  0.0000000E+00  0.8333333E-02
    1      -17.464675   1.000000
    2      -16.707412   1.000000
    3       -8.490048   1.000000
    4       -6.586326   1.000000
    5       -6.586319   1.000000
    6       -5.699179   1.000000
    7       -5.140289   1.000000
    8       -5.140242   1.000000
    9       -4.940415   1.000000
   10       -4.783946   1.000000
   11       -4.783942   1.000000
   12       -3.384216   0.000000
   13       -3.384194   0.000000
   14       -0.288878   0.000000
   15        0.578302   0.000000
   16        0.796430   0.000000
 
  0.8547000E-02  0.8547000E-02  0.0000000E+00  0.8333333E-02
    1      -17.463155   1.000000
    2      -16.706518   1.000000
    3       -8.488409   1.000000
    4       -6.592343   1.000000
    5       -6.586295   1.000000
    6       -5.694771   1.000000
    7       -5.146481   1.000000
    8       -5.146206   1.000000
    9       -4.954578   1.000000
   10       -4.780771   1.000000
   11       -4.775648   1.000000
   12       -3.392856   0.000000
   13       -3.385755   0.000000
   14       -0.279986   0.000000
   15        0.591551   0.000000
   16        0.798933   0.000000
 
  0.1709400E-01  0.1709400E-01  0.0000000E+00  0.8333333E-02
    1      -17.458593   1.000000
    2      -16.703841   1.000000
    3       -8.483512   1.000000
    4       -6.609990   1.000000
    5       -6.586195   1.000000
    6       -5.682009   1.000000
    7       -5.167385   1.000000
    8       -5.164376   1.000000
    9       -4.986169   1.000000
   10       -4.771940   1.000000
   11       -4.757832   1.000000
   12       -3.418072   0.000000
   13       -3.390529   0.000000
   14       -0.253765   0.000000
   15        0.630303   0.000000
   16        0.806668   0.000000
 
  0.2564100E-01  0.2564100E-01  0.0000000E+00  0.8333333E-02
    1      -17.451009   1.000000
    2      -16.699403   1.000000
    3       -8.475399   1.000000
    4       -6.638190   1.000000
    5       -6.586086   1.000000
    6       -5.662142   1.000000
    7       -5.211949   1.000000
    8       -5.192379   1.000000
    9       -5.016881   1.000000
   10       -4.759145   1.000000
   11       -4.739197   1.000000
   12       -3.457915   0.000000
   13       -3.398802   0.000000
   14       -0.211515   0.000000
   15        0.691090   0.000000
   16        0.820735   0.000000
 
  0.3418800E-01  0.3418800E-01  0.0000000E+00  0.8333333E-02
    1      -17.440437   1.000000
    2      -16.693238   1.000000
    3       -8.464157   1.000000
    4       -6.675518   1.000000
    5       -6.586047   1.000000
    6       -5.636917   1.000000
    7       -5.284047   1.000000
    8       -5.228743   1.000000
    9       -5.037096   1.000000
   10       -4.744322   1.000000
   11       -4.723058   1.000000
   12       -3.509460   0.000000
   13       -3.410942   0.000000
   14       -0.155209   0.000000
   15        0.764716   0.000000
   16        0.847147   0.000000
 
  0.4273500E-01  0.4273500E-01  0.0000000E+00  0.8333333E-02
    1      -17.426921   1.000000
    2      -16.685395   1.000000
    3       -8.449908   1.000000
    4       -6.720426   1.000000
    5       -6.586171   1.000000
    6       -5.608276   1.000000
    7       -5.378963   1.000000
    8       -5.271960   1.000000
    9       -5.048255   1.000000
   10       -4.729175   1.000000
   11       -4.710043   1.000000
   12       -3.569147   0.000000
   13       -3.427295   0.000000
   14       -0.087250   0.000000
   15        0.822167   0.000000
   16        0.910333   0.000000
 
  0.5128200E-01  0.5128200E-01  0.0000000E+00  0.8333333E-02
    1      -17.410516   1.000000
    2      -16.675933   1.000000
    3       -8.432813   1.000000
    4       -6.771522   1.000000
    5       -6.586609   1.000000
    6       -5.578164   1.000000
    7       -5.490191   1.000000
    8       -5.320897   1.000000
    9       -5.054271   1.000000
   10       -4.715068   1.000000
   11       -4.699924   1.000000
   12       -3.633161   0.000007
   13       -3.448125   0.000000
   14       -0.010220   0.000000
   15        0.855628   0.000000
   16        1.016172   0.000000
 
  0.5982900E-01  0.5982900E-01  0.0000000E+00  0.8333333E-02
    1      -17.391292   1.000000
    2      -16.664927   1.000000
    3       -8.413094   1.000000
    4       -6.827605   1.000000
    5       -6.587503   1.000000
    6       -5.612865   1.000000
    7       -5.548459   1.000000
    8       -5.374720   1.000000
    9       -5.057548   1.000000
   10       -4.703061   1.000000
   11       -4.692295   1.000000
   12       -3.697667   0.005758
   13       -3.473520   0.000000
   14        0.073356   0.000000
   15        0.885098   0.000000
   16        1.201010   0.000000
 
  0.6837600E-01  0.6837600E-01  0.0000000E+00  0.8333333E-02
    1      -17.369332   1.000000
    2      -16.652465   1.000000
    3       -8.391024   1.000000
    4       -6.887707   1.000000
    5       -6.589072   1.000000
    6       -5.743505   1.000000
    7       -5.520949   1.000000
    8       -5.432785   1.000000
    9       -5.059283   1.000000
   10       -4.693953   1.000000
   11       -4.686790   1.000000
   12       -3.759111   0.215141
   13       -3.503444   0.000000
   14        0.161161   0.000000
   15        0.915783   0.000000
   16        1.242225   0.000000
 
  0.7692300E-01  0.7692300E-01  0.0000000E+00  0.8333333E-02
    1      -17.344731   1.000000
    2      -16.638646   1.000000
    3       -8.366955   1.000000
    4       -6.951016   1.000000
    5       -6.591538   1.000000
    6       -5.879262   1.000000
    7       -5.497397   1.000000
    8       -5.494448   1.000000
    9       -5.060040   1.000000
   10       -4.688250   1.000000
   11       -4.683132   1.000000
   12       -3.814334   0.780302
   13       -3.537671   0.000000
   14        0.251132   0.000000
   15        0.948481   0.000000
   16        1.218473   0.000000
 
  0.8547000E-01  0.8547000E-01  0.0000000E+00  0.8333333E-02
    1      -17.317597   1.000000
    2      -16.623587   1.000000
    3       -8.341337   1.000000
    4       -7.016860   1.000000
    5       -6.595179   1.000000
    6       -6.017683   1.000000
    7       -5.559330   1.000000
    8       -5.479291   1.000000
    9       -5.060128   1.000000
   10       -4.686087   1.000000
   11       -4.681161   1.000000
   12       -3.860849   0.981641
   13       -3.575838   0.000000
   14        0.341353   0.000000
   15        0.983046   0.000000
   16        1.175719   0.000000
 
  0.9401700E-01  0.9401700E-01  0.0000000E+00  0.8333333E-02
    1      -17.288054   1.000000
    2      -16.607414   1.000000
    3       -8.314731   1.000000
    4       -7.084645   1.000000
    5       -6.600311   1.000000
    6       -6.156488   1.000000
    7       -5.626649   1.000000
    8       -5.468288   1.000000
    9       -5.059687   1.000000
   10       -4.687119   1.000000
   11       -4.680802   1.000000
   12       -3.896987   0.999068
   13       -3.617424   0.000001
   14        0.429695   0.000000
   15        1.018986   0.000000
   16        1.122881   0.000000
 
  0.1025640E+00  0.1025640E+00  0.0000000E+00  0.8333333E-02
    1      -17.256252   1.000000
    2      -16.590268   1.000000
    3       -8.287857   1.000000
    4       -7.153842   1.000000
    5       -6.607343   1.000000
    6       -6.293479   1.000000
    7       -5.695888   1.000000
    8       -5.465599   1.000000
    9       -5.058804   1.000000
   10       -4.690559   1.000000
   11       -4.682060   1.000000
   12       -3.922098   0.999934
   13       -3.661791   0.000199
   14        0.512947   0.000000
   15        1.055594   0.000000
   16        1.068910   0.000000
 
  0.1111110E+00  0.1111110E+00  0.0000000E+00  0.8333333E-02
    1      -17.222341   1.000000
    2      -16.572296   1.000000
    3       -8.261631   1.000000
    4       -7.223934   1.000000
    5       -6.616904   1.000000
    6       -6.426262   1.000000
    7       -5.766405   1.000000
    8       -5.472076   1.000000
    9       -5.057500   1.000000
   10       -4.695308   1.000000
   11       -4.685009   1.000000
   12       -3.936433   0.999988
   13       -3.708173   0.012892
   14        0.584873   0.000000
   15        1.024544   0.000000
   16        1.091995   0.000000
 
  0.1196580E+00  0.1196580E+00  0.0000000E+00  0.8333333E-02
    1      -17.186481   1.000000
    2      -16.553660   1.000000
    3       -8.237202   1.000000
    4       -7.294392   1.000000
    5       -6.631275   1.000000
    6       -6.550762   1.000000
    7       -5.837564   1.000000
    8       -5.488038   1.000000
    9       -5.055763   1.000000
   10       -4.700262   1.000000
   11       -4.689749   1.000000
   12       -3.940993   0.999993
   13       -3.755702   0.188044
   14        0.633452   0.000000
   15        1.004783   0.000000
   16        1.127182   0.000000
 
  0.1282050E+00  0.1282050E+00  0.0000000E+00  0.8333333E-02
    1      -17.148859   1.000000
    2      -16.534529   1.000000
    3       -8.216005   1.000000
    4       -7.364682   1.000000
    5       -6.684990   1.000000
    6       -6.630555   1.000000
    7       -5.908761   1.000000
    8       -5.513215   1.000000
    9       -5.053570   1.000000
   10       -4.704632   1.000000
   11       -4.696417   1.000000
   12       -3.937225   0.999989
   13       -3.803448   0.679154
   14        0.645429   0.000000
   15        1.024833   0.000000
   16        1.160073   0.000000
 
  0.1367520E+00  0.1367520E+00  0.0000000E+00  0.8333333E-02
    1      -17.109680   1.000000
    2      -16.515086   1.000000
    3       -8.199768   1.000000
    4       -7.434253   1.000000
    5       -6.788349   1.000000
    6       -6.653298   1.000000
    7       -5.979462   1.000000
    8       -5.546826   1.000000
    9       -5.050872   1.000000
   10       -4.708044   1.000000
   11       -4.705141   1.000000
   12       -3.926766   0.999961
   13       -3.850441   0.963633
   14        0.623696   0.000000
   15        1.083024   0.000000
   16        1.189618   0.000000
 
  0.1452990E+00  0.1452990E+00  0.0000000E+00  0.8333333E-02
    1      -17.069152   1.000000
    2      -16.495515   1.000000
    3       -8.190452   1.000000
    4       -7.502527   1.000000
    5       -6.883693   1.000000
    6       -6.674497   1.000000
    7       -6.049200   1.000000
    8       -5.587739   1.000000
    9       -5.047613   1.000000
   10       -4.716019   1.000000
   11       -4.710497   1.000000
   12       -3.911238   0.999779
   13       -3.895729   0.998949
   14        0.583492   0.000000
   15        1.164873   0.000000
   16        1.214938   0.000000
 
  0.1538460E+00  0.1538460E+00  0.0000000E+00  0.8333333E-02
    1      -17.027512   1.000000
    2      -16.476013   1.000000
    3       -8.190025   1.000000
    4       -7.568909   1.000000
    5       -6.964694   1.000000
    6       -6.698389   1.000000
    7       -6.117603   1.000000
    8       -5.634686   1.000000
    9       -5.043714   1.000000
   10       -4.729125   1.000000
   11       -4.712307   1.000000
   12       -3.938422   0.999991
   13       -3.892188   0.998536
   14        0.535787   0.000000
   15        1.235502   0.000000
   16        1.259808   0.000000
 
  0.1623930E+00  0.1623930E+00  0.0000000E+00  0.8333333E-02
    1      -16.985001   1.000000
    2      -16.456769   1.000000
    3       -8.200077   1.000000
    4       -7.632785   1.000000
    5       -7.029278   1.000000
    6       -6.725364   1.000000
    7       -6.184419   1.000000
    8       -5.686383   1.000000
    9       -5.039077   1.000000
   10       -4.744387   1.000000
   11       -4.713792   1.000000
   12       -3.977749   1.000000
   13       -3.871034   0.991272
   14        0.485743   0.000000
   15        1.251273   0.000000
   16        1.362822   0.000000
 
  0.1709400E+00  0.1709400E+00  0.0000000E+00  0.8333333E-02
    1      -16.941870   1.000000
    2      -16.437983   1.000000
    3       -8.221294   1.000000
    4       -7.693552   1.000000
    5       -7.076942   1.000000
    6       -6.755173   1.000000
    7       -6.249491   1.000000
    8       -5.741632   1.000000
    9       -5.033617   1.000000
   10       -4.761620   1.000000
   11       -4.715292   1.000000
   12       -4.013117   1.000000
   13       -3.849071   0.960434
   14        0.435611   0.000000
   15        1.262790   0.000000
   16        1.471657   0.000000
 
  0.1794870E+00  0.1794870E+00  0.0000000E+00  0.8333333E-02
    1      -16.898385   1.000000
    2      -16.419847   1.000000
    3       -8.253090   1.000000
    4       -7.750639   1.000000
    5       -7.109059   1.000000
    6       -6.786999   1.000000
    7       -6.312788   1.000000
    8       -5.799372   1.000000
    9       -5.027294   1.000000
   10       -4.780533   1.000000
   11       -4.717093   1.000000
   12       -4.044162   1.000000
   13       -3.827477   0.873890
   14        0.386365   0.000000
   15        1.271147   0.000000
   16        1.585217   0.000000
 
  0.1880340E+00  0.1880340E+00  0.0000000E+00  0.8333333E-02
    1      -16.854822   1.000000
    2      -16.402551   1.000000
    3       -8.293621   1.000000
    4       -7.803477   1.000000
    5       -7.129104   1.000000
    6       -6.819096   1.000000
    7       -6.374334   1.000000
    8       -5.858629   1.000000
    9       -5.020016   1.000000
   10       -4.800689   1.000000
   11       -4.719351   1.000000
   12       -4.070707   1.000000
   13       -3.807284   0.716960
   14        0.338431   0.000000
   15        1.277872   0.000000
   16        1.702880   0.000000
 
  0.1965810E+00  0.1965810E+00  0.0000000E+00  0.8333333E-02
    1      -16.811467   1.000000
    2      -16.386276   1.000000
    3       -8.340212   1.000000
    4       -7.851553   1.000000
    5       -7.142702   1.000000
    6       -6.848360   1.000000
    7       -6.434237   1.000000
    8       -5.918535   1.000000
    9       -5.011736   1.000000
   10       -4.821565   1.000000
   11       -4.722158   1.000000
   12       -4.092762   1.000000
   13       -3.789419   0.527310
   14        0.292011   0.000000
   15        1.284754   0.000000
   16        1.824184   0.000000
 
  0.2051280E+00  0.2051280E+00  0.0000000E+00  0.8333333E-02
    1      -16.768607   1.000000
    2      -16.371198   1.000000
    3       -8.389942   1.000000
    4       -7.894413   1.000000
    5       -7.157319   1.000000
    6       -6.870061   1.000000
    7       -6.492663   1.000000
    8       -5.978290   1.000000
    9       -5.002449   1.000000
   10       -4.842589   1.000000
   11       -4.725543   1.000000
   12       -4.110494   1.000000
   13       -3.774651   0.363480
   14        0.247237   0.000000
   15        1.293651   0.000000
   16        1.948647   0.000000
 
  0.2136750E+00  0.2136750E+00  0.0000000E+00  0.8333333E-02
    1      -16.726534   1.000000
    2      -16.357473   1.000000
    3       -8.440074   1.000000
    4       -7.931671   1.000000
    5       -7.180510   1.000000
    6       -6.879119   1.000000
    7       -6.549828   1.000000
    8       -6.037160   1.000000
    9       -4.992210   1.000000
   10       -4.863173   1.000000
   11       -4.729489   1.000000
   12       -4.124146   1.000000
   13       -3.763648   0.254497
   14        0.204243   0.000000
   15        1.306336   0.000000
   16        2.075596   0.000000
 
  0.2222220E+00  0.2222220E+00  0.0000000E+00  0.8333333E-02
    1      -16.685523   1.000000
    2      -16.345246   1.000000
    3       -8.488278   1.000000
    4       -7.963031   1.000000
    5       -7.216461   1.000000
    6       -6.873387   1.000000
    7       -6.605927   1.000000
    8       -6.094454   1.000000
    9       -4.981191   1.000000
   10       -4.882721   1.000000
   11       -4.733940   1.000000
   12       -4.133999   1.000000
   13       -3.756891   0.197242
   14        0.163218   0.000000
   15        1.324378   0.000000
   16        2.203906   0.000000
 
  0.2307690E+00  0.2307690E+00  0.0000000E+00  0.8333333E-02
    1      -16.645854   1.000000
    2      -16.334637   1.000000
    3       -8.532686   1.000000
    4       -7.988248   1.000000
    5       -7.264569   1.000000
    6       -6.854991   1.000000
    7       -6.661151   1.000000
    8       -6.149543   1.000000
    9       -4.969827   1.000000
   10       -4.900424   1.000000
   11       -4.738792   1.000000
   12       -4.140324   1.000000
   13       -3.754705   0.180531
   14        0.124397   0.000000
   15        1.349073   0.000000
   16        2.331441   0.000000
 
  0.2393160E+00  0.2393160E+00  0.0000000E+00  0.8333333E-02
    1      -16.607791   1.000000
    2      -16.325748   1.000000
    3       -8.571854   1.000000
    4       -8.007225   1.000000
    5       -7.321912   1.000000
    6       -6.827947   1.000000
    7       -6.715621   1.000000
    8       -6.201875   1.000000
    9       -4.959550   1.000000
   10       -4.914663   1.000000
   11       -4.743980   1.000000
   12       -4.143362   1.000000
   13       -3.757260   0.200157
   14        0.088069   0.000000
   15        1.381395   0.000000
   16        2.453617   0.000000
 
  0.2478630E+00  0.2478630E+00  0.0000000E+00  0.8333333E-02
    1      -16.571581   1.000000
    2      -16.318654   1.000000
    3       -8.604725   1.000000
    4       -8.019970   1.000000
    5       -7.385563   1.000000
    6       -6.795891   1.000000
    7       -6.769360   1.000000
    8       -6.250985   1.000000
    9       -4.955128   1.000000
   10       -4.920641   1.000000
   11       -4.749419   1.000000
   12       -4.143307   1.000000
   13       -3.764567   0.262912
   14        0.054552   0.000000
   15        1.421977   0.000000
   16        2.559585   0.000000
 
  0.2564100E+00  0.2564100E+00  0.0000000E+00  0.8333333E-02
    1      -16.537448   1.000000
    2      -16.313399   1.000000
    3       -8.630562   1.000000
    4       -8.026630   1.000000
    5       -7.453210   1.000000
    6       -6.822236   1.000000
    7       -6.761497   1.000000
    8       -6.296506   1.000000
    9       -4.960704   1.000000
   10       -4.914244   1.000000
   11       -4.755010   1.000000
   12       -4.140308   1.000000
   13       -3.776452   0.382765
   14        0.024185   0.000000
   15        1.471102   0.000000
   16        2.625986   0.000000
 
  0.2649570E+00  0.2649570E+00  0.0000000E+00  0.8333333E-02
    1      -16.505591   1.000000
    2      -16.310009   1.000000
    3       -8.648935   1.000000
    4       -8.027514   1.000000
    5       -7.523037   1.000000
    6       -6.873950   1.000000
    7       -6.726676   1.000000
    8       -6.338198   1.000000
    9       -4.970129   1.000000
   10       -4.901817   1.000000
   11       -4.760687   1.000000
   12       -4.134470   1.000000
   13       -3.792604   0.563017
   14       -0.002714   0.000000
   15        1.528692   0.000000
   16        2.631180   0.000000
 
  0.2735040E+00  0.2735040E+00  0.0000000E+00  0.8333333E-02
    1      -16.476168   1.000000
    2      -16.308484   1.000000
    3       -8.659717   1.000000
    4       -8.023135   1.000000
    5       -7.593477   1.000000
    6       -6.923999   1.000000
    7       -6.692785   1.000000
    8       -6.375929   1.000000
    9       -4.979378   1.000000
   10       -4.887674   1.000000
   11       -4.766415   1.000000
   12       -4.125873   1.000000
   13       -3.812579   0.765342
   14       -0.025868   0.000000
   15        1.594291   0.000000
   16        2.588293   0.000000
 
  0.2820510E+00  0.2820510E+00  0.0000000E+00  0.8333333E-02
    1      -16.449307   1.000000
    2      -16.308786   1.000000
    3       -8.663105   1.000000
    4       -8.014192   1.000000
    5       -7.663011   1.000000
    6       -6.971653   1.000000
    7       -6.660812   1.000000
    8       -6.409669   1.000000
    9       -4.987372   1.000000
   10       -4.873213   1.000000
   11       -4.772114   1.000000
   12       -4.114586   1.000000
   13       -3.835790   0.916220
   14       -0.045075   0.000000
   15        1.667022   0.000000
   16        2.524148   0.000000
 
  0.2905980E+00  0.2905980E+00  0.0000000E+00  0.8333333E-02
    1      -16.425099   1.000000
    2      -16.310857   1.000000
    3       -8.659705   1.000000
    4       -8.001675   1.000000
    5       -7.730022   1.000000
    6       -7.015936   1.000000
    7       -6.631458   1.000000
    8       -6.439473   1.000000
    9       -4.993882   1.000000
   10       -4.859084   1.000000
   11       -4.777768   1.000000
   12       -4.100709   1.000000
   13       -3.861551   0.982516
   14       -0.060243   0.000000
   15        1.745507   0.000000
   16        2.452156   0.000000
 
  0.2991450E+00  0.2991450E+00  0.0000000E+00  0.8333333E-02
    1      -16.403595   1.000000
    2      -16.314622   1.000000
    3       -8.650655   1.000000
    4       -7.986875   1.000000
    5       -7.792605   1.000000
    6       -7.055621   1.000000
    7       -6.605200   1.000000
    8       -6.465466   1.000000
    9       -4.998899   1.000000
   10       -4.845752   1.000000
   11       -4.783402   1.000000
   12       -4.084375   1.000000
   13       -3.889101   0.998061
   14       -0.071433   0.000000
   15        1.827747   0.000000
   16        2.378656   0.000000
 
  0.3076920E+00  0.3076920E+00  0.0000000E+00  0.8333333E-02
    1      -16.384806   1.000000
    2      -16.319974   1.000000
    3       -8.637773   1.000000
    4       -7.971374   1.000000
    5       -7.848345   1.000000
    6       -7.089232   1.000000
    7       -6.582323   1.000000
    8       -6.487792   1.000000
    9       -5.002509   1.000000
   10       -4.833575   1.000000
   11       -4.789022   1.000000
   12       -4.065755   1.000000
   13       -3.917563   0.999889
   14       -0.078886   0.000000
   15        1.910937   0.000000
   16        2.307020   0.000000
 
  0.3162390E+00  0.3162390E+00  0.0000000E+00  0.8333333E-02
    1      -16.368697   1.000000
    2      -16.326782   1.000000
    3       -8.623789   1.000000
    4       -7.957044   1.000000
    5       -7.894107   1.000000
    6       -7.115117   1.000000
    7       -6.562950   1.000000
    8       -6.506633   1.000000
    9       -5.004853   1.000000
   10       -4.822847   1.000000
   11       -4.794711   1.000000
   12       -4.045110   1.000000
   13       -3.946044   0.999997
   14       -0.083084   0.000000
   15        1.991258   0.000000
   16        2.239409   0.000000
 
  0.3247860E+00  0.3247860E+00  0.0000000E+00  0.8333333E-02
    1      -16.355191   1.000000
    2      -16.334902   1.000000
    3       -8.612373   1.000000
    4       -7.945853   1.000000
    5       -7.925964   1.000000
    6       -7.131607   1.000000
    7       -6.547074   1.000000
    8       -6.522158   1.000000
    9       -5.006099   1.000000
   10       -4.813791   1.000000
   11       -4.800543   1.000000
   12       -4.022761   1.000000
   13       -3.973555   1.000000
   14       -0.084780   0.000000
   15        2.063797   0.000000
   16        2.177521   0.000000
 
  0.3333330E+00  0.3333330E+00  0.0000000E+00  0.8333333E-02
    1      -16.344230   1.000000
    2      -16.344133   1.000000
    3       -8.607706   1.000000
    4       -7.939636   1.000000
    5       -7.939604   1.000000
    6       -7.137316   1.000000
    7       -6.534579   1.000000
    8       -6.534542   1.000000
    9       -5.006467   1.000000
   10       -4.806639   1.000000
   11       -4.806568   1.000000
   12       -3.999089   1.000000
   13       -3.999082   1.000000
   14       -0.085050   0.000000
   15        2.122879   0.000000
   16        2.122898   0.000000
 
  0.3333330E+00  0.3333330E+00  0.0000000E+00  0.8333333E-02
    1      -16.344230   1.000000
    2      -16.344133   1.000000
    3       -8.607706   1.000000
    4       -7.939636   1.000000
    5       -7.939604   1.000000
    6       -7.137316   1.000000
    7       -6.534579   1.000000
    8       -6.534542   1.000000
    9       -5.006467   1.000000
   10       -4.806639   1.000000
   11       -4.806568   1.000000
   12       -3.999089   1.000000
   13       -3.999082   1.000000
   14       -0.085050   0.000000
   15        2.122879   0.000000
   16        2.122898   0.000000
 
  0.3376065E+00  0.3247860E+00  0.0000000E+00  0.8333333E-02
    1      -16.349205   1.000000
    2      -16.339572   1.000000
    3       -8.609056   1.000000
    4       -7.938796   1.000000
    5       -7.938482   1.000000
    6       -7.135863   1.000000
    7       -6.539642   1.000000
    8       -6.529508   1.000000
    9       -5.006389   1.000000
   10       -4.809779   1.000000
   11       -4.803738   1.000000
   12       -4.010785   1.000000
   13       -3.986891   1.000000
   14       -0.085081   0.000000
   15        2.098764   0.000000
   16        2.145698   0.000000
 
  0.3418800E+00  0.3162390E+00  0.0000000E+00  0.8333333E-02
    1      -16.354453   1.000000
    2      -16.335534   1.000000
    3       -8.613236   1.000000
    4       -7.939626   1.000000
    5       -7.931671   1.000000
    6       -7.131508   1.000000
    7       -6.543999   1.000000
    8       -6.525210   1.000000
    9       -5.006177   1.000000
   10       -4.813079   1.000000
   11       -4.801341   1.000000
   12       -4.021597   1.000000
   13       -3.974525   1.000000
   14       -0.085314   0.000000
   15        2.077015   0.000000
   16        2.163335   0.000000
 
  0.3461535E+00  0.3076920E+00  0.0000000E+00  0.8333333E-02
    1      -16.359902   1.000000
    2      -16.332043   1.000000
    3       -8.620320   1.000000
    4       -7.942142   1.000000
    5       -7.919137   1.000000
    6       -7.124307   1.000000
    7       -6.547661   1.000000
    8       -6.521630   1.000000
    9       -5.005859   1.000000
   10       -4.816515   1.000000
   11       -4.799435   1.000000
   12       -4.031391   1.000000
   13       -3.962048   1.000000
   14       -0.085981   0.000000
   15        2.057855   0.000000
   16        2.175518   0.000000
 
  0.3504271E+00  0.2991450E+00  0.0000000E+00  0.8333333E-02
    1      -16.365532   1.000000
    2      -16.329077   1.000000
    3       -8.630209   1.000000
    4       -7.946319   1.000000
    5       -7.901013   1.000000
    6       -7.114380   1.000000
    7       -6.550639   1.000000
    8       -6.518723   1.000000
    9       -5.005450   1.000000
   10       -4.820096   1.000000
   11       -4.798025   1.000000
   12       -4.040041   1.000000
   13       -3.949520   0.999998
   14       -0.087332   0.000000
   15        2.041482   0.000000
   16        2.182204   0.000000
 
  0.3547006E+00  0.2905980E+00  0.0000000E+00  0.8333333E-02
    1      -16.371319   1.000000
    2      -16.326612   1.000000
    3       -8.642666   1.000000
    4       -7.952081   1.000000
    5       -7.877577   1.000000
    6       -7.101903   1.000000
    7       -6.552955   1.000000
    8       -6.516444   1.000000
    9       -5.004987   1.000000
   10       -4.823843   1.000000
   11       -4.797106   1.000000
   12       -4.047422   1.000000
   13       -3.936996   0.999989
   14       -0.089631   0.000000
   15        2.028106   0.000000
   16        2.183575   0.000000
 
  0.3589741E+00  0.2820510E+00  0.0000000E+00  0.8333333E-02
    1      -16.377239   1.000000
    2      -16.324623   1.000000
    3       -8.657365   1.000000
    4       -7.959311   1.000000
    5       -7.849203   1.000000
    6       -7.087100   1.000000
    7       -6.554632   1.000000
    8       -6.514754   1.000000
    9       -5.004508   1.000000
   10       -4.827776   1.000000
   11       -4.796680   1.000000
   12       -4.053414   1.000000
   13       -3.924535   0.999950
   14       -0.093157   0.000000
   15        2.017931   0.000000
   16        2.179997   0.000000
 
  0.3632476E+00  0.2735040E+00  0.0000000E+00  0.8333333E-02
    1      -16.383272   1.000000
    2      -16.323085   1.000000
    3       -8.673937   1.000000
    4       -7.967871   1.000000
    5       -7.816318   1.000000
    6       -7.070227   1.000000
    7       -6.555683   1.000000
    8       -6.513601   1.000000
    9       -5.004043   1.000000
   10       -4.831887   1.000000
   11       -4.796740   1.000000
   12       -4.057902   1.000000
   13       -3.912186   0.999801
   14       -0.098189   0.000000
   15        2.011160   0.000000
   16        2.171961   0.000000
 
  0.3675211E+00  0.2649570E+00  0.0000000E+00  0.8333333E-02
    1      -16.389393   1.000000
    2      -16.321966   1.000000
    3       -8.692012   1.000000
    4       -7.977591   1.000000
    5       -7.779356   1.000000
    6       -7.051561   1.000000
    7       -6.556132   1.000000
    8       -6.512936   1.000000
    9       -5.003619   1.000000
   10       -4.836194   1.000000
   11       -4.797278   1.000000
   12       -4.060784   1.000000
   13       -3.900005   0.999304
   14       -0.105010   0.000000
   15        2.007985   0.000000
   16        2.160015   0.000000
 
  0.3717946E+00  0.2564100E+00  0.0000000E+00  0.8333333E-02
    1      -16.395579   1.000000
    2      -16.321240   1.000000
    3       -8.711237   1.000000
    4       -7.988303   1.000000
    5       -7.738739   1.000000
    6       -7.031392   1.000000
    7       -6.555994   1.000000
    8       -6.512703   1.000000
    9       -5.003278   1.000000
   10       -4.840687   1.000000
   11       -4.798273   1.000000
   12       -4.061956   1.000000
   13       -3.888033   0.997867
   14       -0.113890   0.000000
   15        2.008586   0.000000
   16        2.144717   0.000000
 
  0.3760681E+00  0.2478630E+00  0.0000000E+00  0.8333333E-02
    1      -16.401808   1.000000
    2      -16.320879   1.000000
    3       -8.731300   1.000000
    4       -7.999838   1.000000
    5       -7.694866   1.000000